<?xml version="1.0" encoding="ISO-8859-1"?>
<modeling>
 <generator>
  <i name="program" type="string">vasp </i>
  <i name="version" type="string">5.4.4.18Apr17-6-g9f103f2a35  </i>
  <i name="subversion" type="string">(build Oct  7 2019 15:10:45) complex            parallel </i>
  <i name="platform" type="string">LinuxGNU </i>
  <i name="date" type="string">2021 11 08 </i>
  <i name="time" type="string">19:19:34 </i>
 </generator>
 <incar>
  <i type="string" name="SYSTEM">mos2</i>
  <i type="int" name="ISTART">     0</i>
  <i type="string" name="PREC">accurate</i>
  <i type="string" name="ALGO"> Normal</i>
  <i type="int" name="NSIM">     4</i>
  <i type="int" name="NELM">  1000</i>
  <i type="int" name="NELMIN">     2</i>
  <i type="int" name="IBRION">    -1</i>
  <i name="EDIFF">      0.00000100</i>
  <i type="int" name="NSW">     0</i>
  <i name="ENCUT">    600.00000000</i>
  <i type="string" name="LREAL"> Auto</i>
  <i type="int" name="ISMEAR">     0</i>
  <i name="SIGMA">      0.05000000</i>
  <i type="logical" name="LWAVE"> F  </i>
  <i type="logical" name="LCHARG"> T  </i>
  <v type="int" name="KPOINT_BSE">    -1     0     0     0</v>
  <i type="int" name="NELM">  1000</i>
 </incar>
 <structure name="primitive_cell" >
  <crystal>
   <varray name="basis" >
    <v>       9.56424100       0.00000000       0.00000000 </v>
    <v>      -4.78212000       8.28287600       0.00000000 </v>
    <v>      -0.00000000       0.00000000      18.15827300 </v>
   </varray>
   <i name="volume">   1438.48789588 </i>
   <varray name="rec_basis" >
    <v>       0.10455613       0.06036550       0.00000000 </v>
    <v>       0.00000000       0.12073101      -0.00000000 </v>
    <v>       0.00000000      -0.00000000       0.05507132 </v>
   </varray>
  </crystal>
  <varray name="positions" >
   <v>       0.03214796       0.01760795      -0.49891943 </v>
   <v>       0.22229439       0.12568575      -0.40827186 </v>
   <v>       0.10644548      -0.10550155       0.40931425 </v>
   <v>       0.09687618       0.21173184       0.40649530 </v>
   <v>      -0.22750651      -0.10095165       0.43072228 </v>
   <v>      -0.12482406      -0.22629362      -0.41499206 </v>
   <v>      -0.12373343       0.10010917      -0.41042278 </v>
   <v>       0.31185554       0.34197016       0.49734359 </v>
   <v>      -0.01873646       0.29483856      -0.49997462 </v>
   <v>      -0.01819233      -0.31818493       0.49496243 </v>
   <v>       0.32074809      -0.03661690       0.49782066 </v>
   <v>      -0.33558082      -0.35802797       0.49503481 </v>
   <v>       0.45739992       0.23103825       0.43165966 </v>
   <v>      -0.36065211       0.01909018      -0.49989171 </v>
   <v>       0.22601802       0.44519402      -0.41510335 </v>
   <v>       0.22348232      -0.22436431      -0.41301030 </v>
   <v>      -0.43521706      -0.21857275      -0.41503284 </v>
   <v>      -0.22968283       0.22666010       0.41423983 </v>
   <v>      -0.22249900      -0.45215447       0.40955115 </v>
   <v>      -0.46048327       0.12374268      -0.41176850 </v>
   <v>       0.11145549      -0.45180811       0.43245094 </v>
   <v>      -0.43814174       0.44223665      -0.41273164 </v>
   <v>       0.45033620      -0.45738017       0.40605672 </v>
   <v>       0.43694031      -0.11667753       0.40601643 </v>
   <v>      -0.09381022       0.45260959      -0.40888636 </v>
   <v>      -0.29261508       0.35520887      -0.49509101 </v>
   <v>       0.36926391      -0.31765863       0.49658712 </v>
  </varray>
 </structure>
 <varray name="primitive_index" >
  <v type="int" >        1 </v>
  <v type="int" >       11 </v>
  <v type="int" >       16 </v>
  <v type="int" >       12 </v>
  <v type="int" >       27 </v>
  <v type="int" >       26 </v>
  <v type="int" >       22 </v>
  <v type="int" >        2 </v>
  <v type="int" >        7 </v>
  <v type="int" >        9 </v>
  <v type="int" >        4 </v>
  <v type="int" >        8 </v>
  <v type="int" >       17 </v>
  <v type="int" >        3 </v>
  <v type="int" >       13 </v>
  <v type="int" >       15 </v>
  <v type="int" >       20 </v>
  <v type="int" >       23 </v>
  <v type="int" >       25 </v>
  <v type="int" >       10 </v>
  <v type="int" >       14 </v>
  <v type="int" >       19 </v>
  <v type="int" >       21 </v>
  <v type="int" >       18 </v>
  <v type="int" >       24 </v>
  <v type="int" >        6 </v>
  <v type="int" >        5 </v>
 </varray>
 <kpoints>
  <generation param="Gamma">
   <v type="int" name="divisions">       6        6        1 </v>
   <v name="usershift">      0.00000000       0.00000000       0.00000000 </v>
   <v name="genvec1">      0.16666667       0.00000000       0.00000000 </v>
   <v name="genvec2">      0.00000000       0.16666667       0.00000000 </v>
   <v name="genvec3">      0.00000000       0.00000000       1.00000000 </v>
   <v name="shift">      0.00000000       0.00000000       0.00000000 </v>
  </generation>
  <varray name="kpointlist" >
   <v>       0.00000000       0.00000000       0.00000000 </v>
   <v>       0.16666667       0.00000000       0.00000000 </v>
   <v>       0.33333333       0.00000000       0.00000000 </v>
   <v>       0.50000000       0.00000000       0.00000000 </v>
   <v>       0.00000000       0.16666667       0.00000000 </v>
   <v>       0.16666667       0.16666667       0.00000000 </v>
   <v>       0.33333333       0.16666667       0.00000000 </v>
   <v>       0.50000000       0.16666667       0.00000000 </v>
   <v>      -0.33333333       0.16666667       0.00000000 </v>
   <v>      -0.16666667       0.16666667       0.00000000 </v>
   <v>       0.00000000       0.33333333       0.00000000 </v>
   <v>       0.16666667       0.33333333       0.00000000 </v>
   <v>       0.33333333       0.33333333       0.00000000 </v>
   <v>       0.50000000       0.33333333       0.00000000 </v>
   <v>      -0.33333333       0.33333333       0.00000000 </v>
   <v>      -0.16666667       0.33333333       0.00000000 </v>
   <v>       0.00000000       0.50000000       0.00000000 </v>
   <v>       0.16666667       0.50000000       0.00000000 </v>
   <v>       0.33333333       0.50000000       0.00000000 </v>
   <v>       0.50000000       0.50000000       0.00000000 </v>
  </varray>
  <varray name="weights" >
   <v>       0.02777778 </v>
   <v>       0.05555556 </v>
   <v>       0.05555556 </v>
   <v>       0.02777778 </v>
   <v>       0.05555556 </v>
   <v>       0.05555556 </v>
   <v>       0.05555556 </v>
   <v>       0.05555556 </v>
   <v>       0.05555556 </v>
   <v>       0.05555556 </v>
   <v>       0.05555556 </v>
   <v>       0.05555556 </v>
   <v>       0.05555556 </v>
   <v>       0.05555556 </v>
   <v>       0.05555556 </v>
   <v>       0.05555556 </v>
   <v>       0.02777778 </v>
   <v>       0.05555556 </v>
   <v>       0.05555556 </v>
   <v>       0.02777778 </v>
  </varray>
 </kpoints>
 <parameters>
  <separator name="general" >
   <i type="string" name="SYSTEM">mos2</i>
   <i type="logical" name="LCOMPAT"> F  </i>
  </separator>
  <separator name="electronic" >
   <i type="string" name="PREC">accura</i>
   <i name="ENMAX">    600.00000000</i>
   <i name="ENAUG">    446.01400000</i>
   <i name="EDIFF">      0.00000100</i>
   <i type="int" name="IALGO">    38</i>
   <i type="int" name="IWAVPR">    10</i>
   <i type="int" name="NBANDS">   140</i>
   <i name="NELECT">    234.00000000</i>
   <i type="int" name="TURBO">     0</i>
   <i type="int" name="IRESTART">     0</i>
   <i type="int" name="NREBOOT">     0</i>
   <i type="int" name="NMIN">     0</i>
   <i name="EREF">      0.00000000</i>
   <separator name="electronic smearing" >
    <i type="int" name="ISMEAR">     0</i>
    <i name="SIGMA">      0.05000000</i>
    <i name="KSPACING">      0.50000000</i>
    <i type="logical" name="KGAMMA"> T  </i>
   </separator>
   <separator name="electronic projectors" >
    <i type="logical" name="LREAL"> T  </i>
    <v name="ROPT">     -0.00025000     -0.00025000</v>
    <i type="int" name="LMAXPAW">  -100</i>
    <i type="int" name="LMAXMIX">     2</i>
    <i type="logical" name="NLSPLINE"> F  </i>
   </separator>
   <separator name="electronic startup" >
    <i type="int" name="ISTART">     0</i>
    <i type="int" name="ICHARG">     2</i>
    <i type="int" name="INIWAV">     1</i>
   </separator>
   <separator name="electronic spin" >
    <i type="int" name="ISPIN">     1</i>
    <i type="logical" name="LNONCOLLINEAR"> F  </i>
    <v name="MAGMOM">      1.00000000      1.00000000      1.00000000      1.00000000      1.00000000      1.00000000      1.00000000      1.00000000      1.00000000      1.00000000      1.00000000      1.00000000      1.00000000      1.00000000      1.00000000      1.00000000      1.00000000      1.00000000      1.00000000      1.00000000
      1.00000000      1.00000000      1.00000000      1.00000000      1.00000000      1.00000000      1.00000000</v>
    <i name="NUPDOWN">     -1.00000000</i>
    <i type="logical" name="LSORBIT"> F  </i>
    <v name="SAXIS">      0.00000000      0.00000000      1.00000000</v>
    <i type="logical" name="LSPIRAL"> F  </i>
    <v name="QSPIRAL">      0.00000000      0.00000000      0.00000000</v>
    <i type="logical" name="LZEROZ"> F  </i>
   </separator>
   <separator name="electronic exchange-correlation" >
    <i type="logical" name="LASPH"> F  </i>
    <i type="logical" name="LMETAGGA"> F  </i>
   </separator>
   <separator name="electronic convergence" >
    <i type="int" name="NELM">  1000</i>
    <i type="int" name="NELMDL">    -5</i>
    <i type="int" name="NELMIN">     2</i>
    <i name="ENINI">    600.00000000</i>
    <separator name="electronic convergence detail" >
     <i type="logical" name="LDIAG"> T  </i>
     <i type="logical" name="LSUBROT"> F  </i>
     <i name="WEIMIN">      0.00000000</i>
     <i name="EBREAK">      0.00000000</i>
     <i name="DEPER">      0.30000000</i>
     <i type="int" name="NRMM">     4</i>
     <i name="TIME">      0.40000000</i>
    </separator>
   </separator>
   <separator name="electronic mixer" >
    <i name="AMIX">      0.40000000</i>
    <i name="BMIX">      1.00000000</i>
    <i name="AMIN">      0.10000000</i>
    <i name="AMIX_MAG">      1.60000000</i>
    <i name="BMIX_MAG">      1.00000000</i>
    <separator name="electronic mixer details" >
     <i type="int" name="IMIX">     4</i>
     <i type="logical" name="MIXFIRST"> F  </i>
     <i type="int" name="MAXMIX">   -45</i>
     <i name="WC">    100.00000000</i>
     <i type="int" name="INIMIX">     1</i>
     <i type="int" name="MIXPRE">     1</i>
     <i type="int" name="MREMOVE">     5</i>
    </separator>
   </separator>
   <separator name="electronic dipolcorrection" >
    <i type="logical" name="LDIPOL"> F  </i>
    <i type="logical" name="LMONO"> F  </i>
    <i type="int" name="IDIPOL">     0</i>
    <i name="EPSILON">      1.00000000</i>
    <v name="DIPOL">   -100.00000000   -100.00000000   -100.00000000</v>
    <i name="EFIELD">      0.00000000</i>
   </separator>
  </separator>
  <separator name="grids" >
   <i type="int" name="NGX">    80</i>
   <i type="int" name="NGY">    80</i>
   <i type="int" name="NGZ">   150</i>
   <i type="int" name="NGXF">   160</i>
   <i type="int" name="NGYF">   160</i>
   <i type="int" name="NGZF">   300</i>
   <i type="logical" name="ADDGRID"> F  </i>
  </separator>
  <separator name="ionic" >
   <i type="int" name="NSW">     0</i>
   <i type="int" name="IBRION">    -1</i>
   <i type="int" name="MDALGO">     0</i>
   <i type="int" name="ISIF">     2</i>
   <i name="PSTRESS">      0.00000000</i>
   <i name="EDIFFG">      0.00001000</i>
   <i type="int" name="NFREE">     0</i>
   <i name="POTIM">      0.50000000</i>
   <i name="SMASS">     -3.00000000</i>
   <i name="SCALEE">      1.00000000</i>
  </separator>
  <separator name="ionic md" >
   <i name="TEBEG">      0.00010000</i>
   <i name="TEEND">      0.00010000</i>
   <i type="int" name="NBLOCK">     1</i>
   <i type="int" name="KBLOCK">     1</i>
   <i type="int" name="NPACO">   256</i>
   <i name="APACO">     16.00000000</i>
  </separator>
  <separator name="symmetry" >
   <i type="int" name="ISYM">     2</i>
   <i name="SYMPREC">      0.00001000</i>
  </separator>
  <separator name="dos" >
   <i type="int" name="LORBIT">     0</i>
   <v name="RWIGS">     -1.00000000     -1.00000000</v>
   <i type="int" name="NEDOS">   301</i>
   <i name="EMIN">     10.00000000</i>
   <i name="EMAX">    -10.00000000</i>
   <i name="EFERMI">      0.00000000</i>
  </separator>
  <separator name="writing" >
   <i type="int" name="NWRITE">     2</i>
   <i type="logical" name="LWAVE"> F  </i>
   <i type="logical" name="LDOWNSAMPLE"> F  </i>
   <i type="logical" name="LCHARG"> T  </i>
   <i type="logical" name="LPARD"> F  </i>
   <i type="logical" name="LVTOT"> F  </i>
   <i type="logical" name="LVHAR"> F  </i>
   <i type="logical" name="LELF"> F  </i>
   <i type="logical" name="LOPTICS"> F  </i>
   <v name="STM">      0.00000000      0.00000000      0.00000000      0.00000000      0.00000000      0.00000000      0.00000000</v>
  </separator>
  <separator name="performance" >
   <i type="int" name="NPAR">     4</i>
   <i type="int" name="NSIM">     4</i>
   <i type="int" name="NBLK">    -1</i>
   <i type="logical" name="LPLANE"> T  </i>
   <i type="logical" name="LSCALAPACK"> T  </i>
   <i type="logical" name="LSCAAWARE"> F  </i>
   <i type="logical" name="LSCALU"> F  </i>
   <i type="logical" name="LASYNC"> F  </i>
   <i type="logical" name="LORBITALREAL"> F  </i>
  </separator>
  <separator name="miscellaneous" >
   <i type="int" name="IDIOT">     3</i>
   <i type="int" name="ISPECIAL">     0</i>
   <i type="logical" name="LMUSIC"> F  </i>
   <v name="POMASS">     95.94000000     32.06600000</v>
   <v name="DARWINR">      0.00000000      0.00000000</v>
   <v name="DARWINV">      1.00000000      1.00000000</v>
   <i type="logical" name="LCORR"> T  </i>
  </separator>
  <i type="logical" name="GGA_COMPAT"> T  </i>
  <i type="logical" name="LBERRY"> F  </i>
  <i type="int" name="ICORELEVEL">     0</i>
  <i type="logical" name="LDAU"> F  </i>
  <i type="int" name="I_CONSTRAINED_M">     0</i>
  <separator name="electronic exchange-correlation" >
   <i type="string" name="GGA">--</i>
   <i type="int" name="VOSKOWN">     0</i>
   <i type="logical" name="LHFCALC"> F  </i>
   <i type="string" name="PRECFOCK"></i>
   <i type="logical" name="LSYMGRAD"> F  </i>
   <i type="logical" name="LHFONE"> F  </i>
   <i type="logical" name="LRHFCALC"> F  </i>
   <i type="logical" name="LTHOMAS"> F  </i>
   <i type="logical" name="LMODELHF"> F  </i>
   <i name="ENCUT4O">     -1.00000000</i>
   <i type="int" name="EXXOEP">     0</i>
   <i type="int" name="FOURORBIT">     0</i>
   <i name="AEXX">      0.00000000</i>
   <i name="HFALPHA">      0.00000000</i>
   <i name="MCALPHA">      0.00000000</i>
   <i name="ALDAX">      1.00000000</i>
   <i name="AGGAX">      1.00000000</i>
   <i name="ALDAC">      1.00000000</i>
   <i name="AGGAC">      1.00000000</i>
   <i type="int" name="NKREDX">     1</i>
   <i type="int" name="NKREDY">     1</i>
   <i type="int" name="NKREDZ">     1</i>
   <i type="logical" name="SHIFTRED"> F  </i>
   <i type="logical" name="ODDONLY"> F  </i>
   <i type="logical" name="EVENONLY"> F  </i>
   <i type="int" name="LMAXFOCK">     0</i>
   <i type="int" name="NMAXFOCKAE">     0</i>
   <i type="logical" name="LFOCKAEDFT"> F  </i>
   <i name="HFSCREEN">      0.00000000</i>
   <i name="HFSCREENC">      0.00000000</i>
   <i type="int" name="NBANDSGWLOW">     0</i>
  </separator>
  <separator name="vdW DFT" >
   <i type="logical" name="LUSE_VDW"> F  </i>
   <i name="Zab_VDW">     -0.84910000</i>
   <i name="PARAM1">      0.12340000</i>
   <i name="PARAM2">      1.00000000</i>
   <i name="PARAM3">      0.00000000</i>
  </separator>
  <separator name="model GW" >
   <i type="int" name="MODEL_GW">     0</i>
   <i name="MODEL_EPS0">     31.96639769</i>
   <i name="MODEL_ALPHA">      1.00000000</i>
  </separator>
  <separator name="linear response parameters" >
   <i type="logical" name="LEPSILON"> F  </i>
   <i type="logical" name="LRPA"> F  </i>
   <i type="logical" name="LNABLA"> F  </i>
   <i type="logical" name="LVEL"> F  </i>
   <i type="int" name="KINTER">     0</i>
   <i name="CSHIFT">      0.10000000</i>
   <i name="OMEGAMAX">     -1.00000000</i>
   <i name="DEG_THRESHOLD">      0.00200000</i>
   <i name="RTIME">     -0.10000000</i>
   <i name="WPLASMAI">      0.00000000</i>
   <v name="DFIELD">      0.00000000      0.00000000      0.00000000</v>
   <v name="WPLASMA">      0.00000000      0.00000000      0.00000000      0.00000000      0.00000000      0.00000000      0.00000000      0.00000000      0.00000000</v>
  </separator>
  <separator name="orbital magnetization" >
   <i type="logical" name="NUCIND"> F  </i>
   <v name="MAGPOS">      0.00000000      0.00000000      0.00000000</v>
   <i type="logical" name="LNICSALL"> T  </i>
   <i type="logical" name="ORBITALMAG"> F  </i>
   <i type="logical" name="LMAGBLOCH"> F  </i>
   <i type="logical" name="LCHIMAG"> F  </i>
   <i type="logical" name="LGAUGE"> T  </i>
   <i type="int" name="MAGATOM">     0</i>
   <v name="MAGDIPOL">      0.00000000      0.00000000      0.00000000</v>
   <v name="AVECCONST">      0.00000000      0.00000000      0.00000000</v>
  </separator>
  <separator name="response functions" >
   <i type="logical" name="LADDER"> F  </i>
   <i type="logical" name="LRPAFORCE"> F  </i>
   <i type="logical" name="LFXC"> F  </i>
   <i type="logical" name="LHARTREE"> T  </i>
   <i type="int" name="IBSE">     0</i>
   <v type="int" name="KPOINT">    -1     0     0     0</v>
   <i type="logical" name="LTCTE"> F  </i>
   <i type="logical" name="LTETE"> F  </i>
   <i type="logical" name="LTRIPLET"> F  </i>
   <i type="logical" name="LFXCEPS"> F  </i>
   <i type="logical" name="LFXHEG"> F  </i>
   <i type="int" name="NATURALO">     2</i>
   <i type="logical" name="L2ORDER"> F  </i>
   <i type="logical" name="LMP2LT"> F  </i>
   <i type="logical" name="LUSEW"> F  </i>
   <i name="ENCUTGW">     -2.00000000</i>
   <i name="ENCUTGWSOFT">     -2.00000000</i>
   <i name="ENCUTLF">     -1.00000000</i>
   <i type="int" name="LMAXMP2">    -1</i>
   <i name="SCISSOR">      0.00000000</i>
   <i type="int" name="NOMEGA">     0</i>
   <i type="int" name="NOMEGAR">     0</i>
   <i type="int" name="NBANDSGW">    -1</i>
   <i type="int" name="NBANDSO">    -1</i>
   <i type="int" name="NBANDSV">    -1</i>
   <i type="int" name="NELM">  1000</i>
   <i type="int" name="NELMHF">     1</i>
   <i type="int" name="DIM">     3</i>
   <i type="int" name="ANTIRES">     0</i>
   <i name="OMEGAMAX">    -30.00000000</i>
   <i name="OMEGAMIN">    -30.00000000</i>
   <i name="OMEGATL">   -200.00000000</i>
   <i type="int" name="OMEGAGRID">   140</i>
   <i name="CSHIFT">     -0.10000000</i>
   <i type="logical" name="SELFENERGY"> F  </i>
   <i type="logical" name="LSPECTRAL"> F  </i>
   <i type="logical" name="LSPECTRALGW"> F  </i>
   <i type="logical" name="LSINGLES"> F  </i>
   <i type="logical" name="LFERMIGW"> F  </i>
   <i type="logical" name="ODDONLYGW"> F  </i>
   <i type="logical" name="EVENONLYGW"> F  </i>
   <i type="int" name="NKREDLFX">     1</i>
   <i type="int" name="NKREDLFY">     1</i>
   <i type="int" name="NKREDLFZ">     1</i>
   <i type="int" name="MAXMEM">  2800</i>
   <i type="int" name="TELESCOPE">     0</i>
   <i type="int" name="TAUPAR">     1</i>
   <i type="int" name="OMEGAPAR">    -1</i>
   <i name="LAMBDA">      1.00000000</i>
  </separator>
  <separator name="External order field" >
   <i name="OFIELD_KAPPA">      0.00000000</i>
   <v name="OFIELD_K">      0.00000000      0.00000000      0.00000000</v>
   <i name="OFIELD_Q6_NEAR">      0.00000000</i>
   <i name="OFIELD_Q6_FAR">      0.00000000</i>
   <i name="OFIELD_A">      0.00000000</i>
  </separator>
 </parameters>
 <atominfo>
  <atoms>      27 </atoms>
  <types>       2 </types>
  <array name="atoms" >
   <dimension dim="1">ion</dimension>
   <field type="string">element</field>
   <field type="int">atomtype</field>
   <set>
    <rc><c>Mo</c><c>   1</c></rc>
    <rc><c>Mo</c><c>   1</c></rc>
    <rc><c>Mo</c><c>   1</c></rc>
    <rc><c>Mo</c><c>   1</c></rc>
    <rc><c>Mo</c><c>   1</c></rc>
    <rc><c>Mo</c><c>   1</c></rc>
    <rc><c>Mo</c><c>   1</c></rc>
    <rc><c>Mo</c><c>   1</c></rc>
    <rc><c>Mo</c><c>   1</c></rc>
    <rc><c>S </c><c>   2</c></rc>
    <rc><c>S </c><c>   2</c></rc>
    <rc><c>S </c><c>   2</c></rc>
    <rc><c>S </c><c>   2</c></rc>
    <rc><c>S </c><c>   2</c></rc>
    <rc><c>S </c><c>   2</c></rc>
    <rc><c>S </c><c>   2</c></rc>
    <rc><c>S </c><c>   2</c></rc>
    <rc><c>S </c><c>   2</c></rc>
    <rc><c>S </c><c>   2</c></rc>
    <rc><c>S </c><c>   2</c></rc>
    <rc><c>S </c><c>   2</c></rc>
    <rc><c>S </c><c>   2</c></rc>
    <rc><c>S </c><c>   2</c></rc>
    <rc><c>S </c><c>   2</c></rc>
    <rc><c>S </c><c>   2</c></rc>
    <rc><c>S </c><c>   2</c></rc>
    <rc><c>S </c><c>   2</c></rc>
   </set>
  </array>
  <array name="atomtypes" >
   <dimension dim="1">type</dimension>
   <field type="int">atomspertype</field>
   <field type="string">element</field>
   <field>mass</field>
   <field>valence</field>
   <field type="string">pseudopotential</field>
   <set>
    <rc><c>   9</c><c>Mo</c><c>     95.94000000</c><c>     14.00000000</c><c>  PAW_PBE Mo_sv 02Feb2006               </c></rc>
    <rc><c>  18</c><c>S </c><c>     32.06600000</c><c>      6.00000000</c><c>  PAW_PBE S 06Sep2000                   </c></rc>
   </set>
  </array>
 </atominfo>
 <structure name="initialpos" >
  <crystal>
   <varray name="basis" >
    <v>       9.56424100       0.00000000       0.00000000 </v>
    <v>      -4.78212000       8.28287600       0.00000000 </v>
    <v>      -0.00000000       0.00000000      18.15827300 </v>
   </varray>
   <i name="volume">   1438.48789588 </i>
   <varray name="rec_basis" >
    <v>       0.10455613       0.06036550       0.00000000 </v>
    <v>       0.00000000       0.12073101      -0.00000000 </v>
    <v>       0.00000000      -0.00000000       0.05507132 </v>
   </varray>
  </crystal>
  <varray name="positions" >
   <v>       0.03214796       0.01760795       0.50108057 </v>
   <v>       0.31185554       0.34197016       0.49734359 </v>
   <v>       0.63934789       0.01909018       0.50010829 </v>
   <v>       0.32074809       0.96338310       0.49782066 </v>
   <v>       0.36926391       0.68234137       0.49658712 </v>
   <v>       0.70738492       0.35520887       0.50490899 </v>
   <v>       0.98126354       0.29483856       0.50002538 </v>
   <v>       0.66441918       0.64197203       0.49503481 </v>
   <v>       0.98180767       0.68181507       0.49496243 </v>
   <v>       0.53951673       0.12374268       0.58823150 </v>
   <v>       0.22229439       0.12568575       0.59172814 </v>
   <v>       0.09687618       0.21173184       0.40649530 </v>
   <v>       0.22601802       0.44519402       0.58489665 </v>
   <v>       0.11145549       0.54819189       0.43245094 </v>
   <v>       0.22348232       0.77563569       0.58698970 </v>
   <v>       0.10644548       0.89449845       0.40931425 </v>
   <v>       0.45739992       0.23103825       0.43165966 </v>
   <v>       0.43694031       0.88332247       0.40601643 </v>
   <v>       0.56185826       0.44223665       0.58726836 </v>
   <v>       0.56478294       0.78142725       0.58496716 </v>
   <v>       0.45033620       0.54261983       0.40605672 </v>
   <v>       0.87626657       0.10010917       0.58957722 </v>
   <v>       0.77031717       0.22666010       0.41423983 </v>
   <v>       0.90618978       0.45260959       0.59111364 </v>
   <v>       0.77750100       0.54784553       0.40955115 </v>
   <v>       0.87517594       0.77370638       0.58500794 </v>
   <v>       0.77249349       0.89904835       0.43072228 </v>
  </varray>
 </structure>
 <calculation>
  <scstep>
   <time name="dav">   85.23   85.72</time>
   <time name="total">   85.79   86.30</time>
   <energy>
    <i name="alphaZ">    266.37941352 </i>
    <i name="ewald">  40442.65306759 </i>
    <i name="hartreedc"> -59498.60333076 </i>
    <i name="XCdc">    822.42450059 </i>
    <i name="pawpsdc">  17395.10119161 </i>
    <i name="pawaedc"> -17171.31696658 </i>
    <i name="eentropy">     -0.01308317 </i>
    <i name="bandstr">  -1800.43255915 </i>
    <i name="atom">  21743.34108040 </i>
    <i name="e_fr_energy">   2199.53331405 </i>
    <i name="e_wo_entrp">   2199.54639722 </i>
    <i name="e_0_energy">   2199.53985563 </i>
   </energy>
  </scstep>
  <scstep>
   <time name="dav">   90.95   91.41</time>
   <time name="total">   90.96   91.42</time>
   <energy>
    <i name="e_fr_energy">     13.61057599 </i>
    <i name="e_wo_entrp">     13.61177794 </i>
    <i name="e_0_energy">     13.61117697 </i>
   </energy>
  </scstep>
  <scstep>
   <time name="dav">   80.04   80.47</time>
   <time name="total">   80.04   80.47</time>
   <energy>
    <i name="e_fr_energy">   -195.06027912 </i>
    <i name="e_wo_entrp">   -195.06027912 </i>
    <i name="e_0_energy">   -195.06027912 </i>
   </energy>
  </scstep>
  <scstep>
   <time name="dav">   89.00   89.48</time>
   <time name="total">   89.01   89.48</time>
   <energy>
    <i name="e_fr_energy">   -203.38880687 </i>
    <i name="e_wo_entrp">   -203.38880687 </i>
    <i name="e_0_energy">   -203.38880687 </i>
   </energy>
  </scstep>
  <scstep>
   <time name="dav">   93.54   93.99</time>
   <time name="total">  100.03  100.50</time>
   <energy>
    <i name="e_fr_energy">   -203.65721773 </i>
    <i name="e_wo_entrp">   -203.65721773 </i>
    <i name="e_0_energy">   -203.65721773 </i>
   </energy>
  </scstep>
  <scstep>
   <time name="dav">   78.71   79.11</time>
   <time name="total">   85.69   86.11</time>
   <energy>
    <i name="e_fr_energy">   -194.47234158 </i>
    <i name="e_wo_entrp">   -194.47234158 </i>
    <i name="e_0_energy">   -194.47234158 </i>
   </energy>
  </scstep>
  <scstep>
   <time name="dav">   76.95   77.34</time>
   <time name="total">   83.86   84.28</time>
   <energy>
    <i name="e_fr_energy">   -193.27100520 </i>
    <i name="e_wo_entrp">   -193.27100520 </i>
    <i name="e_0_energy">   -193.27100520 </i>
   </energy>
  </scstep>
  <scstep>
   <time name="dav">   79.23   79.66</time>
   <time name="total">   86.06   86.52</time>
   <energy>
    <i name="e_fr_energy">   -190.66406565 </i>
    <i name="e_wo_entrp">   -190.66406565 </i>
    <i name="e_0_energy">   -190.66406565 </i>
   </energy>
  </scstep>
  <scstep>
   <time name="dav">   89.50   89.93</time>
   <time name="total">   96.33   96.80</time>
   <energy>
    <i name="e_fr_energy">   -190.58569012 </i>
    <i name="e_wo_entrp">   -190.58569012 </i>
    <i name="e_0_energy">   -190.58569012 </i>
   </energy>
  </scstep>
  <scstep>
   <time name="dav">   80.47   80.89</time>
   <time name="total">   87.38   87.83</time>
   <energy>
    <i name="e_fr_energy">   -190.50395525 </i>
    <i name="e_wo_entrp">   -190.50395525 </i>
    <i name="e_0_energy">   -190.50395525 </i>
   </energy>
  </scstep>
  <scstep>
   <time name="dav">   88.37   88.86</time>
   <time name="total">   95.22   95.74</time>
   <energy>
    <i name="e_fr_energy">   -190.48068744 </i>
    <i name="e_wo_entrp">   -190.48068744 </i>
    <i name="e_0_energy">   -190.48068744 </i>
   </energy>
  </scstep>
  <scstep>
   <time name="dav">   80.18   80.64</time>
   <time name="total">   86.98   87.47</time>
   <energy>
    <i name="e_fr_energy">   -190.47311030 </i>
    <i name="e_wo_entrp">   -190.47311030 </i>
    <i name="e_0_energy">   -190.47311030 </i>
   </energy>
  </scstep>
  <scstep>
   <time name="dav">   81.15   81.60</time>
   <time name="total">   88.00   88.48</time>
   <energy>
    <i name="e_fr_energy">   -190.46463142 </i>
    <i name="e_wo_entrp">   -190.46463142 </i>
    <i name="e_0_energy">   -190.46463142 </i>
   </energy>
  </scstep>
  <scstep>
   <time name="dav">   85.15   85.63</time>
   <time name="total">   92.00   92.51</time>
   <energy>
    <i name="e_fr_energy">   -190.46392014 </i>
    <i name="e_wo_entrp">   -190.46392014 </i>
    <i name="e_0_energy">   -190.46392014 </i>
   </energy>
  </scstep>
  <scstep>
   <time name="dav">   83.49   83.90</time>
   <time name="total">   90.36   90.80</time>
   <energy>
    <i name="e_fr_energy">   -190.46349741 </i>
    <i name="e_wo_entrp">   -190.46349741 </i>
    <i name="e_0_energy">   -190.46349741 </i>
   </energy>
  </scstep>
  <scstep>
   <time name="dav">   81.03   81.44</time>
   <time name="total">   87.78   88.21</time>
   <energy>
    <i name="e_fr_energy">   -190.46328131 </i>
    <i name="e_wo_entrp">   -190.46328131 </i>
    <i name="e_0_energy">   -190.46328131 </i>
   </energy>
  </scstep>
  <scstep>
   <time name="dav">   81.70   82.10</time>
   <time name="total">   88.45   88.88</time>
   <energy>
    <i name="e_fr_energy">   -190.46347672 </i>
    <i name="e_wo_entrp">   -190.46347672 </i>
    <i name="e_0_energy">   -190.46347672 </i>
   </energy>
  </scstep>
  <scstep>
   <time name="dav">   85.36   85.78</time>
   <time name="total">   92.09   92.53</time>
   <energy>
    <i name="e_fr_energy">   -190.46390711 </i>
    <i name="e_wo_entrp">   -190.46390711 </i>
    <i name="e_0_energy">   -190.46390711 </i>
   </energy>
  </scstep>
  <scstep>
   <time name="dav">   79.09   79.47</time>
   <time name="total">   85.84   86.25</time>
   <energy>
    <i name="e_fr_energy">   -190.46437406 </i>
    <i name="e_wo_entrp">   -190.46437406 </i>
    <i name="e_0_energy">   -190.46437406 </i>
   </energy>
  </scstep>
  <scstep>
   <time name="dav">   79.60   79.98</time>
   <time name="total">   86.35   86.75</time>
   <energy>
    <i name="e_fr_energy">   -190.46467868 </i>
    <i name="e_wo_entrp">   -190.46467868 </i>
    <i name="e_0_energy">   -190.46467868 </i>
   </energy>
  </scstep>
  <scstep>
   <time name="dav">   78.89   79.29</time>
   <time name="total">   85.78   86.21</time>
   <energy>
    <i name="e_fr_energy">   -190.46482006 </i>
    <i name="e_wo_entrp">   -190.46482006 </i>
    <i name="e_0_energy">   -190.46482006 </i>
   </energy>
  </scstep>
  <scstep>
   <time name="dav">   74.52   74.89</time>
   <time name="total">   81.41   81.81</time>
   <energy>
    <i name="e_fr_energy">   -190.46490877 </i>
    <i name="e_wo_entrp">   -190.46490877 </i>
    <i name="e_0_energy">   -190.46490877 </i>
   </energy>
  </scstep>
  <scstep>
   <time name="dav">   69.03   69.37</time>
   <time name="total">   75.92   76.29</time>
   <energy>
    <i name="e_fr_energy">   -190.46502955 </i>
    <i name="e_wo_entrp">   -190.46502955 </i>
    <i name="e_0_energy">   -190.46502955 </i>
   </energy>
  </scstep>
  <scstep>
   <time name="dav">   67.86   68.19</time>
   <time name="total">   74.69   75.05</time>
   <energy>
    <i name="e_fr_energy">   -190.46511599 </i>
    <i name="e_wo_entrp">   -190.46511599 </i>
    <i name="e_0_energy">   -190.46511599 </i>
   </energy>
  </scstep>
  <scstep>
   <time name="dav">   60.18   60.47</time>
   <time name="total">   67.08   67.40</time>
   <energy>
    <i name="e_fr_energy">   -190.46517588 </i>
    <i name="e_wo_entrp">   -190.46517588 </i>
    <i name="e_0_energy">   -190.46517588 </i>
   </energy>
  </scstep>
  <scstep>
   <time name="dav">   58.72   59.01</time>
   <time name="total">   65.46   65.78</time>
   <energy>
    <i name="e_fr_energy">   -190.46528646 </i>
    <i name="e_wo_entrp">   -190.46528646 </i>
    <i name="e_0_energy">   -190.46528646 </i>
   </energy>
  </scstep>
  <scstep>
   <time name="dav">   59.97   60.27</time>
   <time name="total">   66.75   67.07</time>
   <energy>
    <i name="e_fr_energy">   -190.46535933 </i>
    <i name="e_wo_entrp">   -190.46535933 </i>
    <i name="e_0_energy">   -190.46535933 </i>
   </energy>
  </scstep>
  <scstep>
   <time name="dav">   52.40   52.65</time>
   <time name="total">   59.16   59.44</time>
   <energy>
    <i name="e_fr_energy">   -190.46538049 </i>
    <i name="e_wo_entrp">   -190.46538049 </i>
    <i name="e_0_energy">   -190.46538049 </i>
   </energy>
  </scstep>
  <scstep>
   <time name="dav">   55.62   55.91</time>
   <time name="total">   62.33   62.65</time>
   <energy>
    <i name="e_fr_energy">   -190.46540235 </i>
    <i name="e_wo_entrp">   -190.46540235 </i>
    <i name="e_0_energy">   -190.46540235 </i>
   </energy>
  </scstep>
  <scstep>
   <time name="dav">   56.03   56.34</time>
   <time name="total">   62.76   63.10</time>
   <energy>
    <i name="e_fr_energy">   -190.46541850 </i>
    <i name="e_wo_entrp">   -190.46541850 </i>
    <i name="e_0_energy">   -190.46541850 </i>
   </energy>
  </scstep>
  <scstep>
   <time name="dav">   49.01   49.28</time>
   <time name="total">   55.74   56.05</time>
   <energy>
    <i name="e_fr_energy">   -190.46542351 </i>
    <i name="e_wo_entrp">   -190.46542351 </i>
    <i name="e_0_energy">   -190.46542351 </i>
   </energy>
  </scstep>
  <scstep>
   <time name="dav">   47.03   47.30</time>
   <time name="total">   53.76   54.06</time>
   <energy>
    <i name="e_fr_energy">   -190.46542529 </i>
    <i name="e_wo_entrp">   -190.46542529 </i>
    <i name="e_0_energy">   -190.46542529 </i>
   </energy>
  </scstep>
  <scstep>
   <time name="dav">   48.09   48.37</time>
   <time name="total">   54.85   55.15</time>
   <energy>
    <i name="e_fr_energy">   -190.46542671 </i>
    <i name="e_wo_entrp">   -190.46542671 </i>
    <i name="e_0_energy">   -190.46542671 </i>
   </energy>
  </scstep>
  <scstep>
   <time name="dav">   45.79   46.05</time>
   <time name="total">   46.31   46.57</time>
   <energy>
    <i name="alphaZ">    266.37941352 </i>
    <i name="ewald">  40442.65306759 </i>
    <i name="hartreedc"> -59483.00814937 </i>
    <i name="XCdc">    817.81496763 </i>
    <i name="pawpsdc">  26548.83138709 </i>
    <i name="pawaedc"> -26359.67973490 </i>
    <i name="eentropy">     -0.00000000 </i>
    <i name="bandstr">  -4166.79745888 </i>
    <i name="atom">  21743.34108040 </i>
    <i name="e_fr_energy">   -190.46542692 </i>
    <i name="e_wo_entrp">   -190.46542692 </i>
    <i name="e_0_energy">   -190.46542692 </i>
   </energy>
  </scstep>
  <structure>
   <crystal>
    <varray name="basis" >
     <v>       9.56424100       0.00000000       0.00000000 </v>
     <v>      -4.78212000       8.28287600       0.00000000 </v>
     <v>      -0.00000000       0.00000000      18.15827300 </v>
    </varray>
    <i name="volume">   1438.48789588 </i>
    <varray name="rec_basis" >
     <v>       0.10455613       0.06036550       0.00000000 </v>
     <v>       0.00000000       0.12073101      -0.00000000 </v>
     <v>       0.00000000      -0.00000000       0.05507132 </v>
    </varray>
   </crystal>
   <varray name="positions" >
    <v>       0.03214796       0.01760795       0.50108057 </v>
    <v>       0.31185554       0.34197016       0.49734359 </v>
    <v>       0.63934789       0.01909018       0.50010829 </v>
    <v>       0.32074809       0.96338310       0.49782066 </v>
    <v>       0.36926391       0.68234137       0.49658712 </v>
    <v>       0.70738492       0.35520887       0.50490899 </v>
    <v>       0.98126354       0.29483856       0.50002538 </v>
    <v>       0.66441918       0.64197203       0.49503481 </v>
    <v>       0.98180767       0.68181507       0.49496243 </v>
    <v>       0.53951673       0.12374268       0.58823150 </v>
    <v>       0.22229439       0.12568575       0.59172814 </v>
    <v>       0.09687618       0.21173184       0.40649530 </v>
    <v>       0.22601802       0.44519402       0.58489665 </v>
    <v>       0.11145549       0.54819189       0.43245094 </v>
    <v>       0.22348232       0.77563569       0.58698970 </v>
    <v>       0.10644548       0.89449845       0.40931425 </v>
    <v>       0.45739992       0.23103825       0.43165966 </v>
    <v>       0.43694031       0.88332247       0.40601643 </v>
    <v>       0.56185826       0.44223665       0.58726836 </v>
    <v>       0.56478294       0.78142725       0.58496716 </v>
    <v>       0.45033620       0.54261983       0.40605672 </v>
    <v>       0.87626657       0.10010917       0.58957722 </v>
    <v>       0.77031717       0.22666010       0.41423983 </v>
    <v>       0.90618978       0.45260959       0.59111364 </v>
    <v>       0.77750100       0.54784553       0.40955115 </v>
    <v>       0.87517594       0.77370638       0.58500794 </v>
    <v>       0.77249349       0.89904835       0.43072228 </v>
   </varray>
  </structure>
  <varray name="forces" >
   <v>      -0.74098181      -0.08364495       0.50210608 </v>
   <v>       0.41513437       0.01286979      -0.48140180 </v>
   <v>       0.66555957      -0.43237884       0.61655875 </v>
   <v>      -0.86229177       1.14543347       0.12086241 </v>
   <v>       0.06767862      -0.35742754       0.19348631 </v>
   <v>      -0.69912395      -0.01516642       0.22884050 </v>
   <v>      -0.02582190       0.27684132       0.67614128 </v>
   <v>      -0.90118075      -1.03084966       0.99948485 </v>
   <v>       0.49929741       0.27581768       1.52840095 </v>
   <v>       0.40356783      -0.47708549      -0.02087471 </v>
   <v>       0.77736801      -0.59966658      -0.56106287 </v>
   <v>       0.54119228       0.47420402       0.20954503 </v>
   <v>      -0.93752591       0.44832302       0.38869922 </v>
   <v>      -0.27161899       0.33294706      -0.13144403 </v>
   <v>       0.06159332      -0.78448180      -0.16041385 </v>
   <v>       0.55194571      -0.12727121      -0.67313026 </v>
   <v>      -0.53278213      -0.94055571       0.21584807 </v>
   <v>       0.24343036       0.27917545      -0.22527936 </v>
   <v>      -0.76723917       0.28981642      -0.49055318 </v>
   <v>      -0.02093445       0.13818659      -0.10128633 </v>
   <v>      -0.84520596       0.78511788       0.03617934 </v>
   <v>       0.02773931      -0.19932733      -0.30130510 </v>
   <v>       0.65254591      -0.25630154      -1.31076161 </v>
   <v>       0.32992330       0.33265230      -0.16563840 </v>
   <v>       0.24111488       0.10775575      -1.29245053 </v>
   <v>       0.65376021       0.80733337       0.11049731 </v>
   <v>       0.47285569      -0.40231707       0.08895193 </v>
  </varray>
  <varray name="stress" >
   <v>      16.88692478      -0.60589411      -1.01539610 </v>
   <v>      -0.60589404      16.03359364      -1.17451738 </v>
   <v>      -1.01539614      -1.17451743       2.75564391 </v>
  </varray>
  <energy>
   <i name="e_fr_energy">   -190.46542692 </i>
   <i name="e_wo_entrp">   -190.46542692 </i>
   <i name="e_0_energy">     -0.00000000 </i>
  </energy>
  <time name="totalsc"> 2811.37 2825.88</time>
  <eigenvalues>
   <array>
    <dimension dim="1">band</dimension>
    <dimension dim="2">kpoint</dimension>
    <dimension dim="3">spin</dimension>
    <field>eigene</field>
    <field>occ</field>
    <set>
     <set comment="spin 1">
      <set comment="kpoint 1">
       <r>  -62.5456    1.0000 </r>
       <r>  -62.4785    1.0000 </r>
       <r>  -62.4656    1.0000 </r>
       <r>  -62.4401    1.0000 </r>
       <r>  -62.4213    1.0000 </r>
       <r>  -62.3991    1.0000 </r>
       <r>  -62.3679    1.0000 </r>
       <r>  -62.3397    1.0000 </r>
       <r>  -62.2882    1.0000 </r>
       <r>  -36.9207    1.0000 </r>
       <r>  -36.8530    1.0000 </r>
       <r>  -36.8227    1.0000 </r>
       <r>  -36.8144    1.0000 </r>
       <r>  -36.7798    1.0000 </r>
       <r>  -36.7673    1.0000 </r>
       <r>  -36.7557    1.0000 </r>
       <r>  -36.7063    1.0000 </r>
       <r>  -36.6836    1.0000 </r>
       <r>  -36.6471    1.0000 </r>
       <r>  -36.5931    1.0000 </r>
       <r>  -36.5652    1.0000 </r>
       <r>  -36.5555    1.0000 </r>
       <r>  -36.5218    1.0000 </r>
       <r>  -36.4960    1.0000 </r>
       <r>  -36.4765    1.0000 </r>
       <r>  -36.4730    1.0000 </r>
       <r>  -36.4505    1.0000 </r>
       <r>  -36.4354    1.0000 </r>
       <r>  -36.4249    1.0000 </r>
       <r>  -36.4131    1.0000 </r>
       <r>  -36.3995    1.0000 </r>
       <r>  -36.3810    1.0000 </r>
       <r>  -36.3613    1.0000 </r>
       <r>  -36.3503    1.0000 </r>
       <r>  -36.3169    1.0000 </r>
       <r>  -36.2532    1.0000 </r>
       <r>  -15.6318    1.0000 </r>
       <r>  -14.5706    1.0000 </r>
       <r>  -14.4455    1.0000 </r>
       <r>  -14.4345    1.0000 </r>
       <r>  -14.3965    1.0000 </r>
       <r>  -14.3577    1.0000 </r>
       <r>  -14.2905    1.0000 </r>
       <r>  -14.2818    1.0000 </r>
       <r>  -14.0629    1.0000 </r>
       <r>  -13.9623    1.0000 </r>
       <r>  -13.9555    1.0000 </r>
       <r>  -13.8951    1.0000 </r>
       <r>  -13.7264    1.0000 </r>
       <r>  -13.5406    1.0000 </r>
       <r>  -13.5060    1.0000 </r>
       <r>  -13.4709    1.0000 </r>
       <r>  -13.4309    1.0000 </r>
       <r>  -13.1094    1.0000 </r>
       <r>   -7.0825    1.0000 </r>
       <r>   -6.9009    1.0000 </r>
       <r>   -6.8131    1.0000 </r>
       <r>   -6.7843    1.0000 </r>
       <r>   -6.6921    1.0000 </r>
       <r>   -6.6269    1.0000 </r>
       <r>   -6.5106    1.0000 </r>
       <r>   -6.4955    1.0000 </r>
       <r>   -6.4635    1.0000 </r>
       <r>   -6.4123    1.0000 </r>
       <r>   -6.3616    1.0000 </r>
       <r>   -6.3281    1.0000 </r>
       <r>   -6.3154    1.0000 </r>
       <r>   -6.2758    1.0000 </r>
       <r>   -6.2337    1.0000 </r>
       <r>   -6.1079    1.0000 </r>
       <r>   -6.0310    1.0000 </r>
       <r>   -5.9299    1.0000 </r>
       <r>   -5.8560    1.0000 </r>
       <r>   -5.4332    1.0000 </r>
       <r>   -5.4294    1.0000 </r>
       <r>   -5.3546    1.0000 </r>
       <r>   -5.3196    1.0000 </r>
       <r>   -5.0654    1.0000 </r>
       <r>   -5.0483    1.0000 </r>
       <r>   -4.9074    1.0000 </r>
       <r>   -4.7557    1.0000 </r>
       <r>   -4.7185    1.0000 </r>
       <r>   -4.6942    1.0000 </r>
       <r>   -4.6138    1.0000 </r>
       <r>   -4.5876    1.0000 </r>
       <r>   -4.5075    1.0000 </r>
       <r>   -4.4407    1.0000 </r>
       <r>   -4.4010    1.0000 </r>
       <r>   -4.3347    1.0000 </r>
       <r>   -4.3238    1.0000 </r>
       <r>   -4.2764    1.0000 </r>
       <r>   -4.2417    1.0000 </r>
       <r>   -4.1056    1.0000 </r>
       <r>   -3.7615    1.0000 </r>
       <r>   -3.6855    1.0000 </r>
       <r>   -3.6286    1.0000 </r>
       <r>   -3.5474    1.0000 </r>
       <r>   -3.5059    1.0000 </r>
       <r>   -3.4339    1.0000 </r>
       <r>   -3.2589    1.0000 </r>
       <r>   -3.1404    1.0000 </r>
       <r>   -3.0045    1.0000 </r>
       <r>   -2.9301    1.0000 </r>
       <r>   -2.8485    1.0000 </r>
       <r>   -2.8387    1.0000 </r>
       <r>   -2.7824    1.0000 </r>
       <r>   -2.4971    1.0000 </r>
       <r>   -2.4602    1.0000 </r>
       <r>   -2.4318    1.0000 </r>
       <r>   -2.3384    1.0000 </r>
       <r>   -2.0636    1.0000 </r>
       <r>   -1.9835    1.0000 </r>
       <r>   -1.8997    1.0000 </r>
       <r>   -1.8626    1.0000 </r>
       <r>   -1.7442    1.0000 </r>
       <r>   -1.5470    1.0000 </r>
       <r>   -1.3352    1.0000 </r>
       <r>   -0.7011    0.0000 </r>
       <r>   -0.3783    0.0000 </r>
       <r>   -0.2694    0.0000 </r>
       <r>   -0.1739    0.0000 </r>
       <r>   -0.1090    0.0000 </r>
       <r>   -0.0225    0.0000 </r>
       <r>    0.0105    0.0000 </r>
       <r>    0.0216    0.0000 </r>
       <r>    0.0749    0.0000 </r>
       <r>    0.2612    0.0000 </r>
       <r>    0.6890    0.0000 </r>
       <r>    0.7653    0.0000 </r>
       <r>    0.8097    0.0000 </r>
       <r>    0.8470    0.0000 </r>
       <r>    0.9218    0.0000 </r>
       <r>    0.9395    0.0000 </r>
       <r>    1.1539    0.0000 </r>
       <r>    1.1654    0.0000 </r>
       <r>    1.3784    0.0000 </r>
       <r>    1.8184    0.0000 </r>
       <r>    1.8596    0.0000 </r>
       <r>    1.9045    0.0000 </r>
       <r>    1.9771    0.0000 </r>
      </set>
      <set comment="kpoint 2">
       <r>  -62.5455    1.0000 </r>
       <r>  -62.4786    1.0000 </r>
       <r>  -62.4656    1.0000 </r>
       <r>  -62.4401    1.0000 </r>
       <r>  -62.4213    1.0000 </r>
       <r>  -62.3990    1.0000 </r>
       <r>  -62.3681    1.0000 </r>
       <r>  -62.3395    1.0000 </r>
       <r>  -62.2883    1.0000 </r>
       <r>  -36.9221    1.0000 </r>
       <r>  -36.8720    1.0000 </r>
       <r>  -36.8364    1.0000 </r>
       <r>  -36.8016    1.0000 </r>
       <r>  -36.7746    1.0000 </r>
       <r>  -36.7599    1.0000 </r>
       <r>  -36.7514    1.0000 </r>
       <r>  -36.6965    1.0000 </r>
       <r>  -36.6721    1.0000 </r>
       <r>  -36.6452    1.0000 </r>
       <r>  -36.5931    1.0000 </r>
       <r>  -36.5706    1.0000 </r>
       <r>  -36.5576    1.0000 </r>
       <r>  -36.5236    1.0000 </r>
       <r>  -36.4998    1.0000 </r>
       <r>  -36.4797    1.0000 </r>
       <r>  -36.4685    1.0000 </r>
       <r>  -36.4611    1.0000 </r>
       <r>  -36.4369    1.0000 </r>
       <r>  -36.4277    1.0000 </r>
       <r>  -36.4114    1.0000 </r>
       <r>  -36.3945    1.0000 </r>
       <r>  -36.3798    1.0000 </r>
       <r>  -36.3626    1.0000 </r>
       <r>  -36.3471    1.0000 </r>
       <r>  -36.3176    1.0000 </r>
       <r>  -36.2545    1.0000 </r>
       <r>  -15.5858    1.0000 </r>
       <r>  -14.6741    1.0000 </r>
       <r>  -14.5425    1.0000 </r>
       <r>  -14.4570    1.0000 </r>
       <r>  -14.4418    1.0000 </r>
       <r>  -14.3418    1.0000 </r>
       <r>  -14.2232    1.0000 </r>
       <r>  -14.1982    1.0000 </r>
       <r>  -14.0852    1.0000 </r>
       <r>  -13.9941    1.0000 </r>
       <r>  -13.8939    1.0000 </r>
       <r>  -13.8466    1.0000 </r>
       <r>  -13.7488    1.0000 </r>
       <r>  -13.5472    1.0000 </r>
       <r>  -13.5054    1.0000 </r>
       <r>  -13.4504    1.0000 </r>
       <r>  -13.3935    1.0000 </r>
       <r>  -13.1155    1.0000 </r>
       <r>   -7.1369    1.0000 </r>
       <r>   -7.0450    1.0000 </r>
       <r>   -6.9574    1.0000 </r>
       <r>   -6.8577    1.0000 </r>
       <r>   -6.8232    1.0000 </r>
       <r>   -6.7208    1.0000 </r>
       <r>   -6.6802    1.0000 </r>
       <r>   -6.4921    1.0000 </r>
       <r>   -6.4657    1.0000 </r>
       <r>   -6.4324    1.0000 </r>
       <r>   -6.3370    1.0000 </r>
       <r>   -6.2736    1.0000 </r>
       <r>   -6.1810    1.0000 </r>
       <r>   -6.0577    1.0000 </r>
       <r>   -5.9938    1.0000 </r>
       <r>   -5.9259    1.0000 </r>
       <r>   -5.8070    1.0000 </r>
       <r>   -5.7671    1.0000 </r>
       <r>   -5.7066    1.0000 </r>
       <r>   -5.6035    1.0000 </r>
       <r>   -5.5888    1.0000 </r>
       <r>   -5.3117    1.0000 </r>
       <r>   -5.2169    1.0000 </r>
       <r>   -5.1317    1.0000 </r>
       <r>   -5.0855    1.0000 </r>
       <r>   -5.0495    1.0000 </r>
       <r>   -4.9157    1.0000 </r>
       <r>   -4.8259    1.0000 </r>
       <r>   -4.6943    1.0000 </r>
       <r>   -4.6698    1.0000 </r>
       <r>   -4.5453    1.0000 </r>
       <r>   -4.4775    1.0000 </r>
       <r>   -4.4368    1.0000 </r>
       <r>   -4.3812    1.0000 </r>
       <r>   -4.3278    1.0000 </r>
       <r>   -4.2605    1.0000 </r>
       <r>   -4.2249    1.0000 </r>
       <r>   -4.1398    1.0000 </r>
       <r>   -4.0984    1.0000 </r>
       <r>   -3.7814    1.0000 </r>
       <r>   -3.7419    1.0000 </r>
       <r>   -3.6552    1.0000 </r>
       <r>   -3.5991    1.0000 </r>
       <r>   -3.5699    1.0000 </r>
       <r>   -3.4640    1.0000 </r>
       <r>   -3.2680    1.0000 </r>
       <r>   -3.2019    1.0000 </r>
       <r>   -2.9644    1.0000 </r>
       <r>   -2.9082    1.0000 </r>
       <r>   -2.8219    1.0000 </r>
       <r>   -2.7844    1.0000 </r>
       <r>   -2.6577    1.0000 </r>
       <r>   -2.5048    1.0000 </r>
       <r>   -2.4113    1.0000 </r>
       <r>   -2.3393    1.0000 </r>
       <r>   -2.2834    1.0000 </r>
       <r>   -2.0974    1.0000 </r>
       <r>   -2.0517    1.0000 </r>
       <r>   -1.9821    1.0000 </r>
       <r>   -1.8696    1.0000 </r>
       <r>   -1.7492    1.0000 </r>
       <r>   -1.6008    1.0000 </r>
       <r>   -1.4150    1.0000 </r>
       <r>   -0.7020    0.0000 </r>
       <r>   -0.3876    0.0000 </r>
       <r>   -0.2637    0.0000 </r>
       <r>   -0.2114    0.0000 </r>
       <r>   -0.1054    0.0000 </r>
       <r>   -0.0527    0.0000 </r>
       <r>   -0.0072    0.0000 </r>
       <r>    0.0839    0.0000 </r>
       <r>    0.1637    0.0000 </r>
       <r>    0.3174    0.0000 </r>
       <r>    0.5747    0.0000 </r>
       <r>    0.7178    0.0000 </r>
       <r>    0.8687    0.0000 </r>
       <r>    0.9101    0.0000 </r>
       <r>    0.9392    0.0000 </r>
       <r>    1.0670    0.0000 </r>
       <r>    1.1592    0.0000 </r>
       <r>    1.1939    0.0000 </r>
       <r>    1.3690    0.0000 </r>
       <r>    1.5342    0.0000 </r>
       <r>    1.6091    0.0000 </r>
       <r>    1.7571    0.0000 </r>
       <r>    1.9067    0.0000 </r>
      </set>
      <set comment="kpoint 3">
       <r>  -62.5454    1.0000 </r>
       <r>  -62.4788    1.0000 </r>
       <r>  -62.4657    1.0000 </r>
       <r>  -62.4400    1.0000 </r>
       <r>  -62.4214    1.0000 </r>
       <r>  -62.3988    1.0000 </r>
       <r>  -62.3685    1.0000 </r>
       <r>  -62.3391    1.0000 </r>
       <r>  -62.2884    1.0000 </r>
       <r>  -36.9238    1.0000 </r>
       <r>  -36.8937    1.0000 </r>
       <r>  -36.8599    1.0000 </r>
       <r>  -36.7914    1.0000 </r>
       <r>  -36.7643    1.0000 </r>
       <r>  -36.7560    1.0000 </r>
       <r>  -36.7312    1.0000 </r>
       <r>  -36.6798    1.0000 </r>
       <r>  -36.6504    1.0000 </r>
       <r>  -36.6403    1.0000 </r>
       <r>  -36.5924    1.0000 </r>
       <r>  -36.5835    1.0000 </r>
       <r>  -36.5624    1.0000 </r>
       <r>  -36.5289    1.0000 </r>
       <r>  -36.5048    1.0000 </r>
       <r>  -36.4882    1.0000 </r>
       <r>  -36.4782    1.0000 </r>
       <r>  -36.4575    1.0000 </r>
       <r>  -36.4409    1.0000 </r>
       <r>  -36.4308    1.0000 </r>
       <r>  -36.4100    1.0000 </r>
       <r>  -36.3888    1.0000 </r>
       <r>  -36.3748    1.0000 </r>
       <r>  -36.3667    1.0000 </r>
       <r>  -36.3446    1.0000 </r>
       <r>  -36.3191    1.0000 </r>
       <r>  -36.2559    1.0000 </r>
       <r>  -15.4534    1.0000 </r>
       <r>  -14.9481    1.0000 </r>
       <r>  -14.5830    1.0000 </r>
       <r>  -14.5182    1.0000 </r>
       <r>  -14.4447    1.0000 </r>
       <r>  -14.3323    1.0000 </r>
       <r>  -14.1682    1.0000 </r>
       <r>  -14.1461    1.0000 </r>
       <r>  -14.0764    1.0000 </r>
       <r>  -13.9343    1.0000 </r>
       <r>  -13.8670    1.0000 </r>
       <r>  -13.8322    1.0000 </r>
       <r>  -13.7325    1.0000 </r>
       <r>  -13.6375    1.0000 </r>
       <r>  -13.5339    1.0000 </r>
       <r>  -13.3596    1.0000 </r>
       <r>  -13.2906    1.0000 </r>
       <r>  -13.1390    1.0000 </r>
       <r>   -7.4986    1.0000 </r>
       <r>   -7.1344    1.0000 </r>
       <r>   -7.0544    1.0000 </r>
       <r>   -6.9825    1.0000 </r>
       <r>   -6.9209    1.0000 </r>
       <r>   -6.8063    1.0000 </r>
       <r>   -6.6367    1.0000 </r>
       <r>   -6.4435    1.0000 </r>
       <r>   -6.3825    1.0000 </r>
       <r>   -6.3499    1.0000 </r>
       <r>   -6.2771    1.0000 </r>
       <r>   -6.1941    1.0000 </r>
       <r>   -6.1451    1.0000 </r>
       <r>   -5.9800    1.0000 </r>
       <r>   -5.9126    1.0000 </r>
       <r>   -5.8436    1.0000 </r>
       <r>   -5.8155    1.0000 </r>
       <r>   -5.6154    1.0000 </r>
       <r>   -5.5254    1.0000 </r>
       <r>   -5.3843    1.0000 </r>
       <r>   -5.3319    1.0000 </r>
       <r>   -5.2950    1.0000 </r>
       <r>   -5.2155    1.0000 </r>
       <r>   -5.1743    1.0000 </r>
       <r>   -5.1198    1.0000 </r>
       <r>   -5.1062    1.0000 </r>
       <r>   -4.9927    1.0000 </r>
       <r>   -4.9798    1.0000 </r>
       <r>   -4.8789    1.0000 </r>
       <r>   -4.7284    1.0000 </r>
       <r>   -4.6169    1.0000 </r>
       <r>   -4.4825    1.0000 </r>
       <r>   -4.4068    1.0000 </r>
       <r>   -4.3290    1.0000 </r>
       <r>   -4.2796    1.0000 </r>
       <r>   -4.2141    1.0000 </r>
       <r>   -4.0931    1.0000 </r>
       <r>   -4.0223    1.0000 </r>
       <r>   -3.9795    1.0000 </r>
       <r>   -3.9129    1.0000 </r>
       <r>   -3.8876    1.0000 </r>
       <r>   -3.8329    1.0000 </r>
       <r>   -3.7567    1.0000 </r>
       <r>   -3.6522    1.0000 </r>
       <r>   -3.4150    1.0000 </r>
       <r>   -3.3537    1.0000 </r>
       <r>   -3.2495    1.0000 </r>
       <r>   -2.9088    1.0000 </r>
       <r>   -2.8027    1.0000 </r>
       <r>   -2.7344    1.0000 </r>
       <r>   -2.6336    1.0000 </r>
       <r>   -2.5351    1.0000 </r>
       <r>   -2.5055    1.0000 </r>
       <r>   -2.4217    1.0000 </r>
       <r>   -2.2941    1.0000 </r>
       <r>   -2.2299    1.0000 </r>
       <r>   -2.1562    1.0000 </r>
       <r>   -2.1118    1.0000 </r>
       <r>   -2.0326    1.0000 </r>
       <r>   -1.8857    1.0000 </r>
       <r>   -1.7874    1.0000 </r>
       <r>   -1.6619    1.0000 </r>
       <r>   -1.5159    1.0000 </r>
       <r>   -0.6737    0.0000 </r>
       <r>   -0.4917    0.0000 </r>
       <r>   -0.3340    0.0000 </r>
       <r>   -0.2644    0.0000 </r>
       <r>   -0.1144    0.0000 </r>
       <r>   -0.0082    0.0000 </r>
       <r>    0.0810    0.0000 </r>
       <r>    0.1619    0.0000 </r>
       <r>    0.2216    0.0000 </r>
       <r>    0.4345    0.0000 </r>
       <r>    0.5648    0.0000 </r>
       <r>    0.6662    0.0000 </r>
       <r>    0.9293    0.0000 </r>
       <r>    0.9634    0.0000 </r>
       <r>    1.0874    0.0000 </r>
       <r>    1.1198    0.0000 </r>
       <r>    1.1678    0.0000 </r>
       <r>    1.2472    0.0000 </r>
       <r>    1.2591    0.0000 </r>
       <r>    1.3215    0.0000 </r>
       <r>    1.3605    0.0000 </r>
       <r>    1.5636    0.0000 </r>
       <r>    1.7793    0.0000 </r>
      </set>
      <set comment="kpoint 4">
       <r>  -62.5453    1.0000 </r>
       <r>  -62.4789    1.0000 </r>
       <r>  -62.4657    1.0000 </r>
       <r>  -62.4399    1.0000 </r>
       <r>  -62.4214    1.0000 </r>
       <r>  -62.3988    1.0000 </r>
       <r>  -62.3687    1.0000 </r>
       <r>  -62.3390    1.0000 </r>
       <r>  -62.2884    1.0000 </r>
       <r>  -36.9243    1.0000 </r>
       <r>  -36.9013    1.0000 </r>
       <r>  -36.8701    1.0000 </r>
       <r>  -36.7907    1.0000 </r>
       <r>  -36.7583    1.0000 </r>
       <r>  -36.7562    1.0000 </r>
       <r>  -36.7147    1.0000 </r>
       <r>  -36.6752    1.0000 </r>
       <r>  -36.6424    1.0000 </r>
       <r>  -36.6358    1.0000 </r>
       <r>  -36.5977    1.0000 </r>
       <r>  -36.5842    1.0000 </r>
       <r>  -36.5649    1.0000 </r>
       <r>  -36.5323    1.0000 </r>
       <r>  -36.5077    1.0000 </r>
       <r>  -36.4927    1.0000 </r>
       <r>  -36.4840    1.0000 </r>
       <r>  -36.4524    1.0000 </r>
       <r>  -36.4429    1.0000 </r>
       <r>  -36.4316    1.0000 </r>
       <r>  -36.4102    1.0000 </r>
       <r>  -36.3872    1.0000 </r>
       <r>  -36.3736    1.0000 </r>
       <r>  -36.3666    1.0000 </r>
       <r>  -36.3451    1.0000 </r>
       <r>  -36.3200    1.0000 </r>
       <r>  -36.2559    1.0000 </r>
       <r>  -15.2968    1.0000 </r>
       <r>  -15.1610    1.0000 </r>
       <r>  -14.6011    1.0000 </r>
       <r>  -14.5397    1.0000 </r>
       <r>  -14.4269    1.0000 </r>
       <r>  -14.3510    1.0000 </r>
       <r>  -14.1684    1.0000 </r>
       <r>  -14.1369    1.0000 </r>
       <r>  -13.9895    1.0000 </r>
       <r>  -13.9662    1.0000 </r>
       <r>  -13.8421    1.0000 </r>
       <r>  -13.7909    1.0000 </r>
       <r>  -13.7580    1.0000 </r>
       <r>  -13.6744    1.0000 </r>
       <r>  -13.5631    1.0000 </r>
       <r>  -13.3103    1.0000 </r>
       <r>  -13.2371    1.0000 </r>
       <r>  -13.1587    1.0000 </r>
       <r>   -7.6360    1.0000 </r>
       <r>   -7.1894    1.0000 </r>
       <r>   -7.1270    1.0000 </r>
       <r>   -7.0407    1.0000 </r>
       <r>   -6.9823    1.0000 </r>
       <r>   -6.6347    1.0000 </r>
       <r>   -6.5750    1.0000 </r>
       <r>   -6.4864    1.0000 </r>
       <r>   -6.3505    1.0000 </r>
       <r>   -6.2988    1.0000 </r>
       <r>   -6.2955    1.0000 </r>
       <r>   -6.1899    1.0000 </r>
       <r>   -6.1415    1.0000 </r>
       <r>   -6.0001    1.0000 </r>
       <r>   -5.9310    1.0000 </r>
       <r>   -5.8327    1.0000 </r>
       <r>   -5.7826    1.0000 </r>
       <r>   -5.6808    1.0000 </r>
       <r>   -5.4536    1.0000 </r>
       <r>   -5.3452    1.0000 </r>
       <r>   -5.2778    1.0000 </r>
       <r>   -5.2606    1.0000 </r>
       <r>   -5.2140    1.0000 </r>
       <r>   -5.1300    1.0000 </r>
       <r>   -5.0973    1.0000 </r>
       <r>   -5.0009    1.0000 </r>
       <r>   -4.9767    1.0000 </r>
       <r>   -4.9084    1.0000 </r>
       <r>   -4.8903    1.0000 </r>
       <r>   -4.7432    1.0000 </r>
       <r>   -4.5976    1.0000 </r>
       <r>   -4.5236    1.0000 </r>
       <r>   -4.4255    1.0000 </r>
       <r>   -4.3249    1.0000 </r>
       <r>   -4.2777    1.0000 </r>
       <r>   -4.2566    1.0000 </r>
       <r>   -4.1602    1.0000 </r>
       <r>   -4.0663    1.0000 </r>
       <r>   -4.0275    1.0000 </r>
       <r>   -3.9458    1.0000 </r>
       <r>   -3.8938    1.0000 </r>
       <r>   -3.7882    1.0000 </r>
       <r>   -3.7778    1.0000 </r>
       <r>   -3.6640    1.0000 </r>
       <r>   -3.4491    1.0000 </r>
       <r>   -3.2790    1.0000 </r>
       <r>   -3.1532    1.0000 </r>
       <r>   -3.1264    1.0000 </r>
       <r>   -2.7886    1.0000 </r>
       <r>   -2.7314    1.0000 </r>
       <r>   -2.6620    1.0000 </r>
       <r>   -2.5155    1.0000 </r>
       <r>   -2.4467    1.0000 </r>
       <r>   -2.3808    1.0000 </r>
       <r>   -2.3406    1.0000 </r>
       <r>   -2.1802    1.0000 </r>
       <r>   -2.0929    1.0000 </r>
       <r>   -2.0776    1.0000 </r>
       <r>   -2.0099    1.0000 </r>
       <r>   -1.9610    1.0000 </r>
       <r>   -1.8298    1.0000 </r>
       <r>   -1.6475    1.0000 </r>
       <r>   -1.5560    1.0000 </r>
       <r>   -0.6215    0.0000 </r>
       <r>   -0.5841    0.0000 </r>
       <r>   -0.3966    0.0000 </r>
       <r>   -0.2554    0.0000 </r>
       <r>   -0.1723    0.0000 </r>
       <r>    0.0466    0.0000 </r>
       <r>    0.1527    0.0000 </r>
       <r>    0.2065    0.0000 </r>
       <r>    0.2201    0.0000 </r>
       <r>    0.5022    0.0000 </r>
       <r>    0.5915    0.0000 </r>
       <r>    0.6714    0.0000 </r>
       <r>    0.9604    0.0000 </r>
       <r>    1.0016    0.0000 </r>
       <r>    1.0203    0.0000 </r>
       <r>    1.1060    0.0000 </r>
       <r>    1.1483    0.0000 </r>
       <r>    1.2469    0.0000 </r>
       <r>    1.2613    0.0000 </r>
       <r>    1.3033    0.0000 </r>
       <r>    1.3239    0.0000 </r>
       <r>    1.4796    0.0000 </r>
       <r>    1.6959    0.0000 </r>
      </set>
      <set comment="kpoint 5">
       <r>  -62.5455    1.0000 </r>
       <r>  -62.4780    1.0000 </r>
       <r>  -62.4667    1.0000 </r>
       <r>  -62.4393    1.0000 </r>
       <r>  -62.4216    1.0000 </r>
       <r>  -62.3992    1.0000 </r>
       <r>  -62.3679    1.0000 </r>
       <r>  -62.3396    1.0000 </r>
       <r>  -62.2883    1.0000 </r>
       <r>  -36.9223    1.0000 </r>
       <r>  -36.8630    1.0000 </r>
       <r>  -36.8496    1.0000 </r>
       <r>  -36.8001    1.0000 </r>
       <r>  -36.7780    1.0000 </r>
       <r>  -36.7578    1.0000 </r>
       <r>  -36.7457    1.0000 </r>
       <r>  -36.6996    1.0000 </r>
       <r>  -36.6673    1.0000 </r>
       <r>  -36.6465    1.0000 </r>
       <r>  -36.5946    1.0000 </r>
       <r>  -36.5674    1.0000 </r>
       <r>  -36.5562    1.0000 </r>
       <r>  -36.5287    1.0000 </r>
       <r>  -36.4991    1.0000 </r>
       <r>  -36.4837    1.0000 </r>
       <r>  -36.4705    1.0000 </r>
       <r>  -36.4508    1.0000 </r>
       <r>  -36.4437    1.0000 </r>
       <r>  -36.4280    1.0000 </r>
       <r>  -36.4135    1.0000 </r>
       <r>  -36.3965    1.0000 </r>
       <r>  -36.3733    1.0000 </r>
       <r>  -36.3609    1.0000 </r>
       <r>  -36.3466    1.0000 </r>
       <r>  -36.3210    1.0000 </r>
       <r>  -36.2536    1.0000 </r>
       <r>  -15.5852    1.0000 </r>
       <r>  -14.6709    1.0000 </r>
       <r>  -14.5504    1.0000 </r>
       <r>  -14.4832    1.0000 </r>
       <r>  -14.4182    1.0000 </r>
       <r>  -14.3296    1.0000 </r>
       <r>  -14.2455    1.0000 </r>
       <r>  -14.1842    1.0000 </r>
       <r>  -14.0772    1.0000 </r>
       <r>  -14.0050    1.0000 </r>
       <r>  -13.8817    1.0000 </r>
       <r>  -13.8433    1.0000 </r>
       <r>  -13.7562    1.0000 </r>
       <r>  -13.5460    1.0000 </r>
       <r>  -13.5110    1.0000 </r>
       <r>  -13.4605    1.0000 </r>
       <r>  -13.3791    1.0000 </r>
       <r>  -13.1176    1.0000 </r>
       <r>   -7.1507    1.0000 </r>
       <r>   -7.0426    1.0000 </r>
       <r>   -6.9451    1.0000 </r>
       <r>   -6.9045    1.0000 </r>
       <r>   -6.7813    1.0000 </r>
       <r>   -6.7393    1.0000 </r>
       <r>   -6.6686    1.0000 </r>
       <r>   -6.5248    1.0000 </r>
       <r>   -6.4323    1.0000 </r>
       <r>   -6.4157    1.0000 </r>
       <r>   -6.3784    1.0000 </r>
       <r>   -6.2680    1.0000 </r>
       <r>   -6.1470    1.0000 </r>
       <r>   -6.0565    1.0000 </r>
       <r>   -5.9990    1.0000 </r>
       <r>   -5.9111    1.0000 </r>
       <r>   -5.8239    1.0000 </r>
       <r>   -5.7638    1.0000 </r>
       <r>   -5.6771    1.0000 </r>
       <r>   -5.6476    1.0000 </r>
       <r>   -5.5471    1.0000 </r>
       <r>   -5.2945    1.0000 </r>
       <r>   -5.2236    1.0000 </r>
       <r>   -5.1112    1.0000 </r>
       <r>   -5.0655    1.0000 </r>
       <r>   -5.0278    1.0000 </r>
       <r>   -4.9642    1.0000 </r>
       <r>   -4.8449    1.0000 </r>
       <r>   -4.7566    1.0000 </r>
       <r>   -4.6797    1.0000 </r>
       <r>   -4.5678    1.0000 </r>
       <r>   -4.4895    1.0000 </r>
       <r>   -4.4120    1.0000 </r>
       <r>   -4.3499    1.0000 </r>
       <r>   -4.3228    1.0000 </r>
       <r>   -4.2465    1.0000 </r>
       <r>   -4.2362    1.0000 </r>
       <r>   -4.1497    1.0000 </r>
       <r>   -4.1085    1.0000 </r>
       <r>   -3.7730    1.0000 </r>
       <r>   -3.7288    1.0000 </r>
       <r>   -3.6803    1.0000 </r>
       <r>   -3.6121    1.0000 </r>
       <r>   -3.5519    1.0000 </r>
       <r>   -3.4554    1.0000 </r>
       <r>   -3.2382    1.0000 </r>
       <r>   -3.1487    1.0000 </r>
       <r>   -2.9889    1.0000 </r>
       <r>   -2.9113    1.0000 </r>
       <r>   -2.8834    1.0000 </r>
       <r>   -2.7836    1.0000 </r>
       <r>   -2.6585    1.0000 </r>
       <r>   -2.5001    1.0000 </r>
       <r>   -2.4156    1.0000 </r>
       <r>   -2.3180    1.0000 </r>
       <r>   -2.2653    1.0000 </r>
       <r>   -2.1039    1.0000 </r>
       <r>   -2.0742    1.0000 </r>
       <r>   -1.9529    1.0000 </r>
       <r>   -1.8642    1.0000 </r>
       <r>   -1.7379    1.0000 </r>
       <r>   -1.6116    1.0000 </r>
       <r>   -1.4383    1.0000 </r>
       <r>   -0.6977    0.0000 </r>
       <r>   -0.3623    0.0000 </r>
       <r>   -0.2784    0.0000 </r>
       <r>   -0.2114    0.0000 </r>
       <r>   -0.1523    0.0000 </r>
       <r>   -0.0484    0.0000 </r>
       <r>    0.0209    0.0000 </r>
       <r>    0.0868    0.0000 </r>
       <r>    0.1475    0.0000 </r>
       <r>    0.3082    0.0000 </r>
       <r>    0.6085    0.0000 </r>
       <r>    0.6666    0.0000 </r>
       <r>    0.8278    0.0000 </r>
       <r>    0.9356    0.0000 </r>
       <r>    1.0074    0.0000 </r>
       <r>    1.0421    0.0000 </r>
       <r>    1.1688    0.0000 </r>
       <r>    1.2011    0.0000 </r>
       <r>    1.3970    0.0000 </r>
       <r>    1.5535    0.0000 </r>
       <r>    1.6534    0.0000 </r>
       <r>    1.7248    0.0000 </r>
       <r>    1.9138    0.0000 </r>
      </set>
      <set comment="kpoint 6">
       <r>  -62.5454    1.0000 </r>
       <r>  -62.4781    1.0000 </r>
       <r>  -62.4667    1.0000 </r>
       <r>  -62.4392    1.0000 </r>
       <r>  -62.4215    1.0000 </r>
       <r>  -62.3992    1.0000 </r>
       <r>  -62.3682    1.0000 </r>
       <r>  -62.3392    1.0000 </r>
       <r>  -62.2884    1.0000 </r>
       <r>  -36.9244    1.0000 </r>
       <r>  -36.8836    1.0000 </r>
       <r>  -36.8609    1.0000 </r>
       <r>  -36.7908    1.0000 </r>
       <r>  -36.7710    1.0000 </r>
       <r>  -36.7564    1.0000 </r>
       <r>  -36.7324    1.0000 </r>
       <r>  -36.6884    1.0000 </r>
       <r>  -36.6482    1.0000 </r>
       <r>  -36.6420    1.0000 </r>
       <r>  -36.5951    1.0000 </r>
       <r>  -36.5759    1.0000 </r>
       <r>  -36.5591    1.0000 </r>
       <r>  -36.5343    1.0000 </r>
       <r>  -36.5034    1.0000 </r>
       <r>  -36.4870    1.0000 </r>
       <r>  -36.4713    1.0000 </r>
       <r>  -36.4614    1.0000 </r>
       <r>  -36.4412    1.0000 </r>
       <r>  -36.4308    1.0000 </r>
       <r>  -36.4155    1.0000 </r>
       <r>  -36.3930    1.0000 </r>
       <r>  -36.3689    1.0000 </r>
       <r>  -36.3632    1.0000 </r>
       <r>  -36.3440    1.0000 </r>
       <r>  -36.3210    1.0000 </r>
       <r>  -36.2547    1.0000 </r>
       <r>  -15.4958    1.0000 </r>
       <r>  -14.8023    1.0000 </r>
       <r>  -14.7402    1.0000 </r>
       <r>  -14.4873    1.0000 </r>
       <r>  -14.3531    1.0000 </r>
       <r>  -14.3110    1.0000 </r>
       <r>  -14.2101    1.0000 </r>
       <r>  -14.1508    1.0000 </r>
       <r>  -14.0581    1.0000 </r>
       <r>  -13.9953    1.0000 </r>
       <r>  -13.8453    1.0000 </r>
       <r>  -13.8346    1.0000 </r>
       <r>  -13.7662    1.0000 </r>
       <r>  -13.5928    1.0000 </r>
       <r>  -13.5454    1.0000 </r>
       <r>  -13.3713    1.0000 </r>
       <r>  -13.3192    1.0000 </r>
       <r>  -13.1299    1.0000 </r>
       <r>   -7.3371    1.0000 </r>
       <r>   -7.2812    1.0000 </r>
       <r>   -7.0856    1.0000 </r>
       <r>   -6.9433    1.0000 </r>
       <r>   -6.8110    1.0000 </r>
       <r>   -6.7100    1.0000 </r>
       <r>   -6.6759    1.0000 </r>
       <r>   -6.4935    1.0000 </r>
       <r>   -6.4315    1.0000 </r>
       <r>   -6.3133    1.0000 </r>
       <r>   -6.2628    1.0000 </r>
       <r>   -6.1932    1.0000 </r>
       <r>   -6.1422    1.0000 </r>
       <r>   -6.0690    1.0000 </r>
       <r>   -5.9916    1.0000 </r>
       <r>   -5.8015    1.0000 </r>
       <r>   -5.7093    1.0000 </r>
       <r>   -5.6083    1.0000 </r>
       <r>   -5.5610    1.0000 </r>
       <r>   -5.5016    1.0000 </r>
       <r>   -5.4381    1.0000 </r>
       <r>   -5.2451    1.0000 </r>
       <r>   -5.2110    1.0000 </r>
       <r>   -5.1584    1.0000 </r>
       <r>   -5.1303    1.0000 </r>
       <r>   -5.0964    1.0000 </r>
       <r>   -5.0585    1.0000 </r>
       <r>   -4.9268    1.0000 </r>
       <r>   -4.7954    1.0000 </r>
       <r>   -4.7704    1.0000 </r>
       <r>   -4.6875    1.0000 </r>
       <r>   -4.4915    1.0000 </r>
       <r>   -4.3635    1.0000 </r>
       <r>   -4.3260    1.0000 </r>
       <r>   -4.2863    1.0000 </r>
       <r>   -4.2433    1.0000 </r>
       <r>   -4.1581    1.0000 </r>
       <r>   -4.0587    1.0000 </r>
       <r>   -3.9894    1.0000 </r>
       <r>   -3.9040    1.0000 </r>
       <r>   -3.8466    1.0000 </r>
       <r>   -3.7679    1.0000 </r>
       <r>   -3.6677    1.0000 </r>
       <r>   -3.5475    1.0000 </r>
       <r>   -3.4860    1.0000 </r>
       <r>   -3.3005    1.0000 </r>
       <r>   -3.2024    1.0000 </r>
       <r>   -2.9519    1.0000 </r>
       <r>   -2.9078    1.0000 </r>
       <r>   -2.8283    1.0000 </r>
       <r>   -2.6316    1.0000 </r>
       <r>   -2.5229    1.0000 </r>
       <r>   -2.4446    1.0000 </r>
       <r>   -2.3667    1.0000 </r>
       <r>   -2.2841    1.0000 </r>
       <r>   -2.2498    1.0000 </r>
       <r>   -2.1595    1.0000 </r>
       <r>   -2.1112    1.0000 </r>
       <r>   -2.0400    1.0000 </r>
       <r>   -1.8920    1.0000 </r>
       <r>   -1.7741    1.0000 </r>
       <r>   -1.6764    1.0000 </r>
       <r>   -1.5019    1.0000 </r>
       <r>   -0.6771    0.0000 </r>
       <r>   -0.4362    0.0000 </r>
       <r>   -0.3312    0.0000 </r>
       <r>   -0.2331    0.0000 </r>
       <r>   -0.0808    0.0000 </r>
       <r>   -0.0385    0.0000 </r>
       <r>    0.0353    0.0000 </r>
       <r>    0.1429    0.0000 </r>
       <r>    0.1678    0.0000 </r>
       <r>    0.4066    0.0000 </r>
       <r>    0.5514    0.0000 </r>
       <r>    0.6266    0.0000 </r>
       <r>    0.9094    0.0000 </r>
       <r>    1.0066    0.0000 </r>
       <r>    1.0634    0.0000 </r>
       <r>    1.1277    0.0000 </r>
       <r>    1.1728    0.0000 </r>
       <r>    1.1956    0.0000 </r>
       <r>    1.3466    0.0000 </r>
       <r>    1.3753    0.0000 </r>
       <r>    1.4097    0.0000 </r>
       <r>    1.6866    0.0000 </r>
       <r>    1.7332    0.0000 </r>
      </set>
      <set comment="kpoint 7">
       <r>  -62.5454    1.0000 </r>
       <r>  -62.4783    1.0000 </r>
       <r>  -62.4667    1.0000 </r>
       <r>  -62.4391    1.0000 </r>
       <r>  -62.4216    1.0000 </r>
       <r>  -62.3990    1.0000 </r>
       <r>  -62.3684    1.0000 </r>
       <r>  -62.3390    1.0000 </r>
       <r>  -62.2884    1.0000 </r>
       <r>  -36.9253    1.0000 </r>
       <r>  -36.8981    1.0000 </r>
       <r>  -36.8726    1.0000 </r>
       <r>  -36.7878    1.0000 </r>
       <r>  -36.7674    1.0000 </r>
       <r>  -36.7527    1.0000 </r>
       <r>  -36.7113    1.0000 </r>
       <r>  -36.6770    1.0000 </r>
       <r>  -36.6433    1.0000 </r>
       <r>  -36.6295    1.0000 </r>
       <r>  -36.5970    1.0000 </r>
       <r>  -36.5836    1.0000 </r>
       <r>  -36.5684    1.0000 </r>
       <r>  -36.5353    1.0000 </r>
       <r>  -36.5072    1.0000 </r>
       <r>  -36.4922    1.0000 </r>
       <r>  -36.4831    1.0000 </r>
       <r>  -36.4548    1.0000 </r>
       <r>  -36.4393    1.0000 </r>
       <r>  -36.4317    1.0000 </r>
       <r>  -36.4133    1.0000 </r>
       <r>  -36.3912    1.0000 </r>
       <r>  -36.3696    1.0000 </r>
       <r>  -36.3652    1.0000 </r>
       <r>  -36.3461    1.0000 </r>
       <r>  -36.3196    1.0000 </r>
       <r>  -36.2555    1.0000 </r>
       <r>  -15.3311    1.0000 </r>
       <r>  -15.0514    1.0000 </r>
       <r>  -14.8273    1.0000 </r>
       <r>  -14.4561    1.0000 </r>
       <r>  -14.3541    1.0000 </r>
       <r>  -14.3212    1.0000 </r>
       <r>  -14.1798    1.0000 </r>
       <r>  -14.0826    1.0000 </r>
       <r>  -14.0251    1.0000 </r>
       <r>  -13.9608    1.0000 </r>
       <r>  -13.8805    1.0000 </r>
       <r>  -13.7887    1.0000 </r>
       <r>  -13.7289    1.0000 </r>
       <r>  -13.7153    1.0000 </r>
       <r>  -13.5923    1.0000 </r>
       <r>  -13.2814    1.0000 </r>
       <r>  -13.2524    1.0000 </r>
       <r>  -13.1424    1.0000 </r>
       <r>   -7.5645    1.0000 </r>
       <r>   -7.3644    1.0000 </r>
       <r>   -7.2884    1.0000 </r>
       <r>   -6.8725    1.0000 </r>
       <r>   -6.8255    1.0000 </r>
       <r>   -6.6234    1.0000 </r>
       <r>   -6.5608    1.0000 </r>
       <r>   -6.4634    1.0000 </r>
       <r>   -6.4107    1.0000 </r>
       <r>   -6.3410    1.0000 </r>
       <r>   -6.2657    1.0000 </r>
       <r>   -6.1789    1.0000 </r>
       <r>   -6.1360    1.0000 </r>
       <r>   -6.0806    1.0000 </r>
       <r>   -5.9487    1.0000 </r>
       <r>   -5.7739    1.0000 </r>
       <r>   -5.7135    1.0000 </r>
       <r>   -5.6248    1.0000 </r>
       <r>   -5.5104    1.0000 </r>
       <r>   -5.3710    1.0000 </r>
       <r>   -5.3277    1.0000 </r>
       <r>   -5.2826    1.0000 </r>
       <r>   -5.1820    1.0000 </r>
       <r>   -5.1242    1.0000 </r>
       <r>   -5.0830    1.0000 </r>
       <r>   -5.0230    1.0000 </r>
       <r>   -4.9907    1.0000 </r>
       <r>   -4.9310    1.0000 </r>
       <r>   -4.8621    1.0000 </r>
       <r>   -4.8217    1.0000 </r>
       <r>   -4.6420    1.0000 </r>
       <r>   -4.5307    1.0000 </r>
       <r>   -4.4108    1.0000 </r>
       <r>   -4.3573    1.0000 </r>
       <r>   -4.3170    1.0000 </r>
       <r>   -4.2341    1.0000 </r>
       <r>   -4.1049    1.0000 </r>
       <r>   -4.0521    1.0000 </r>
       <r>   -4.0249    1.0000 </r>
       <r>   -3.9292    1.0000 </r>
       <r>   -3.8670    1.0000 </r>
       <r>   -3.7696    1.0000 </r>
       <r>   -3.7072    1.0000 </r>
       <r>   -3.5586    1.0000 </r>
       <r>   -3.4786    1.0000 </r>
       <r>   -3.3232    1.0000 </r>
       <r>   -3.1847    1.0000 </r>
       <r>   -2.9806    1.0000 </r>
       <r>   -2.8812    1.0000 </r>
       <r>   -2.8568    1.0000 </r>
       <r>   -2.7581    1.0000 </r>
       <r>   -2.4645    1.0000 </r>
       <r>   -2.4135    1.0000 </r>
       <r>   -2.3476    1.0000 </r>
       <r>   -2.3026    1.0000 </r>
       <r>   -2.1715    1.0000 </r>
       <r>   -2.1210    1.0000 </r>
       <r>   -2.0861    1.0000 </r>
       <r>   -2.0454    1.0000 </r>
       <r>   -1.9806    1.0000 </r>
       <r>   -1.8062    1.0000 </r>
       <r>   -1.6293    1.0000 </r>
       <r>   -1.5755    1.0000 </r>
       <r>   -0.6039    0.0000 </r>
       <r>   -0.5305    0.0000 </r>
       <r>   -0.3840    0.0000 </r>
       <r>   -0.2110    0.0000 </r>
       <r>   -0.1188    0.0000 </r>
       <r>   -0.0200    0.0000 </r>
       <r>    0.0983    0.0000 </r>
       <r>    0.1407    0.0000 </r>
       <r>    0.2012    0.0000 </r>
       <r>    0.4921    0.0000 </r>
       <r>    0.5766    0.0000 </r>
       <r>    0.6344    0.0000 </r>
       <r>    0.9870    0.0000 </r>
       <r>    1.0243    0.0000 </r>
       <r>    1.0711    0.0000 </r>
       <r>    1.1302    0.0000 </r>
       <r>    1.1650    0.0000 </r>
       <r>    1.2185    0.0000 </r>
       <r>    1.2494    0.0000 </r>
       <r>    1.3220    0.0000 </r>
       <r>    1.3584    0.0000 </r>
       <r>    1.5237    0.0000 </r>
       <r>    1.6276    0.0000 </r>
      </set>
      <set comment="kpoint 8">
       <r>  -62.5454    1.0000 </r>
       <r>  -62.4783    1.0000 </r>
       <r>  -62.4667    1.0000 </r>
       <r>  -62.4392    1.0000 </r>
       <r>  -62.4218    1.0000 </r>
       <r>  -62.3988    1.0000 </r>
       <r>  -62.3683    1.0000 </r>
       <r>  -62.3392    1.0000 </r>
       <r>  -62.2884    1.0000 </r>
       <r>  -36.9236    1.0000 </r>
       <r>  -36.9012    1.0000 </r>
       <r>  -36.8706    1.0000 </r>
       <r>  -36.7858    1.0000 </r>
       <r>  -36.7737    1.0000 </r>
       <r>  -36.7496    1.0000 </r>
       <r>  -36.7116    1.0000 </r>
       <r>  -36.6720    1.0000 </r>
       <r>  -36.6435    1.0000 </r>
       <r>  -36.6345    1.0000 </r>
       <r>  -36.5950    1.0000 </r>
       <r>  -36.5878    1.0000 </r>
       <r>  -36.5711    1.0000 </r>
       <r>  -36.5311    1.0000 </r>
       <r>  -36.5060    1.0000 </r>
       <r>  -36.4953    1.0000 </r>
       <r>  -36.4814    1.0000 </r>
       <r>  -36.4557    1.0000 </r>
       <r>  -36.4397    1.0000 </r>
       <r>  -36.4272    1.0000 </r>
       <r>  -36.4068    1.0000 </r>
       <r>  -36.3924    1.0000 </r>
       <r>  -36.3720    1.0000 </r>
       <r>  -36.3695    1.0000 </r>
       <r>  -36.3468    1.0000 </r>
       <r>  -36.3181    1.0000 </r>
       <r>  -36.2563    1.0000 </r>
       <r>  -15.3299    1.0000 </r>
       <r>  -15.0547    1.0000 </r>
       <r>  -14.8270    1.0000 </r>
       <r>  -14.4478    1.0000 </r>
       <r>  -14.3562    1.0000 </r>
       <r>  -14.3288    1.0000 </r>
       <r>  -14.1687    1.0000 </r>
       <r>  -14.0903    1.0000 </r>
       <r>  -14.0357    1.0000 </r>
       <r>  -13.9339    1.0000 </r>
       <r>  -13.8879    1.0000 </r>
       <r>  -13.8102    1.0000 </r>
       <r>  -13.7431    1.0000 </r>
       <r>  -13.6826    1.0000 </r>
       <r>  -13.5968    1.0000 </r>
       <r>  -13.2930    1.0000 </r>
       <r>  -13.2427    1.0000 </r>
       <r>  -13.1417    1.0000 </r>
       <r>   -7.5674    1.0000 </r>
       <r>   -7.3779    1.0000 </r>
       <r>   -7.2633    1.0000 </r>
       <r>   -6.8986    1.0000 </r>
       <r>   -6.7928    1.0000 </r>
       <r>   -6.6371    1.0000 </r>
       <r>   -6.5764    1.0000 </r>
       <r>   -6.4406    1.0000 </r>
       <r>   -6.3932    1.0000 </r>
       <r>   -6.3474    1.0000 </r>
       <r>   -6.2724    1.0000 </r>
       <r>   -6.1874    1.0000 </r>
       <r>   -6.1235    1.0000 </r>
       <r>   -6.0992    1.0000 </r>
       <r>   -5.9440    1.0000 </r>
       <r>   -5.8310    1.0000 </r>
       <r>   -5.7225    1.0000 </r>
       <r>   -5.5793    1.0000 </r>
       <r>   -5.4708    1.0000 </r>
       <r>   -5.3809    1.0000 </r>
       <r>   -5.3367    1.0000 </r>
       <r>   -5.2976    1.0000 </r>
       <r>   -5.1687    1.0000 </r>
       <r>   -5.1178    1.0000 </r>
       <r>   -5.0815    1.0000 </r>
       <r>   -5.0404    1.0000 </r>
       <r>   -5.0027    1.0000 </r>
       <r>   -4.9198    1.0000 </r>
       <r>   -4.8888    1.0000 </r>
       <r>   -4.7990    1.0000 </r>
       <r>   -4.6330    1.0000 </r>
       <r>   -4.4811    1.0000 </r>
       <r>   -4.4098    1.0000 </r>
       <r>   -4.3504    1.0000 </r>
       <r>   -4.2969    1.0000 </r>
       <r>   -4.2638    1.0000 </r>
       <r>   -4.1526    1.0000 </r>
       <r>   -4.1010    1.0000 </r>
       <r>   -4.0259    1.0000 </r>
       <r>   -3.9138    1.0000 </r>
       <r>   -3.8416    1.0000 </r>
       <r>   -3.7540    1.0000 </r>
       <r>   -3.6500    1.0000 </r>
       <r>   -3.5856    1.0000 </r>
       <r>   -3.4996    1.0000 </r>
       <r>   -3.3101    1.0000 </r>
       <r>   -3.2068    1.0000 </r>
       <r>   -2.9699    1.0000 </r>
       <r>   -2.8893    1.0000 </r>
       <r>   -2.8350    1.0000 </r>
       <r>   -2.7879    1.0000 </r>
       <r>   -2.4655    1.0000 </r>
       <r>   -2.4360    1.0000 </r>
       <r>   -2.3440    1.0000 </r>
       <r>   -2.3071    1.0000 </r>
       <r>   -2.1922    1.0000 </r>
       <r>   -2.1269    1.0000 </r>
       <r>   -2.0917    1.0000 </r>
       <r>   -2.0195    1.0000 </r>
       <r>   -1.9551    1.0000 </r>
       <r>   -1.7993    1.0000 </r>
       <r>   -1.6839    1.0000 </r>
       <r>   -1.5288    1.0000 </r>
       <r>   -0.6290    0.0000 </r>
       <r>   -0.5108    0.0000 </r>
       <r>   -0.3646    0.0000 </r>
       <r>   -0.2139    0.0000 </r>
       <r>   -0.1287    0.0000 </r>
       <r>   -0.0251    0.0000 </r>
       <r>    0.0641    0.0000 </r>
       <r>    0.1720    0.0000 </r>
       <r>    0.2219    0.0000 </r>
       <r>    0.4992    0.0000 </r>
       <r>    0.5737    0.0000 </r>
       <r>    0.6346    0.0000 </r>
       <r>    0.9487    0.0000 </r>
       <r>    1.0249    0.0000 </r>
       <r>    1.0853    0.0000 </r>
       <r>    1.1405    0.0000 </r>
       <r>    1.1948    0.0000 </r>
       <r>    1.2357    0.0000 </r>
       <r>    1.2604    0.0000 </r>
       <r>    1.3126    0.0000 </r>
       <r>    1.3336    0.0000 </r>
       <r>    1.5024    0.0000 </r>
       <r>    1.6387    0.0000 </r>
      </set>
      <set comment="kpoint 9">
       <r>  -62.5454    1.0000 </r>
       <r>  -62.4781    1.0000 </r>
       <r>  -62.4666    1.0000 </r>
       <r>  -62.4393    1.0000 </r>
       <r>  -62.4218    1.0000 </r>
       <r>  -62.3988    1.0000 </r>
       <r>  -62.3680    1.0000 </r>
       <r>  -62.3396    1.0000 </r>
[...]
       <r>   -5.3249    1.0000 </r>
       <r>   -5.2022    1.0000 </r>
       <r>   -5.0985    1.0000 </r>
       <r>   -5.0774    1.0000 </r>
       <r>   -4.9366    1.0000 </r>
       <r>   -4.8987    1.0000 </r>
       <r>   -4.8562    1.0000 </r>
       <r>   -4.8109    1.0000 </r>
       <r>   -4.7603    1.0000 </r>
       <r>   -4.7286    1.0000 </r>
       <r>   -4.5930    1.0000 </r>
       <r>   -4.4233    1.0000 </r>
       <r>   -4.3277    1.0000 </r>
       <r>   -4.2892    1.0000 </r>
       <r>   -4.2279    1.0000 </r>
       <r>   -4.1800    1.0000 </r>
       <r>   -4.1358    1.0000 </r>
       <r>   -4.0346    1.0000 </r>
       <r>   -3.9936    1.0000 </r>
       <r>   -3.8778    1.0000 </r>
       <r>   -3.8291    1.0000 </r>
       <r>   -3.7113    1.0000 </r>
       <r>   -3.6476    1.0000 </r>
       <r>   -3.3830    1.0000 </r>
       <r>   -3.2650    1.0000 </r>
       <r>   -3.2254    1.0000 </r>
       <r>   -3.0974    1.0000 </r>
       <r>   -2.7825    1.0000 </r>
       <r>   -2.7163    1.0000 </r>
       <r>   -2.6635    1.0000 </r>
       <r>   -2.5553    1.0000 </r>
       <r>   -2.5094    1.0000 </r>
       <r>   -2.3623    1.0000 </r>
       <r>   -2.2588    1.0000 </r>
       <r>   -2.1857    1.0000 </r>
       <r>   -2.1131    1.0000 </r>
       <r>   -2.0807    1.0000 </r>
       <r>   -1.9854    1.0000 </r>
       <r>   -1.9017    1.0000 </r>
       <r>   -1.8406    1.0000 </r>
       <r>   -1.6842    1.0000 </r>
       <r>   -1.6202    1.0000 </r>
       <r>   -0.5874    0.0000 </r>
       <r>   -0.5808    0.0000 </r>
       <r>   -0.4560    0.0000 </r>
       <r>   -0.2622    0.0000 </r>
       <r>   -0.1442    0.0000 </r>
       <r>    0.0370    0.0000 </r>
       <r>    0.1444    0.0000 </r>
       <r>    0.1792    0.0000 </r>
       <r>    0.2804    0.0000 </r>
       <r>    0.5083    0.0000 </r>
       <r>    0.5741    0.0000 </r>
       <r>    0.6551    0.0000 </r>
       <r>    0.9167    0.0000 </r>
       <r>    0.9831    0.0000 </r>
       <r>    1.0877    0.0000 </r>
       <r>    1.1329    0.0000 </r>
       <r>    1.2084    0.0000 </r>
       <r>    1.2573    0.0000 </r>
       <r>    1.2955    0.0000 </r>
       <r>    1.3317    0.0000 </r>
       <r>    1.3999    0.0000 </r>
       <r>    1.5126    0.0000 </r>
       <r>    1.6572    0.0000 </r>
      </set>
     </set>
    </set>
   </array>
  </eigenvalues>
  <separator name="orbital magnetization" >
   <v name="MAGDIPOLOUT">      0.00000000      0.00000000      0.00000000</v>
  </separator>
  <dos>
   <i name="efermi">     -1.12540041 </i>
   <total>
    <array>
     <dimension dim="1">gridpoints</dimension>
     <dimension dim="2">spin</dimension>
     <field>energy</field>
     <field>total</field>
     <field>integrated</field>
     <set>
      <set comment="spin 1">
       <r>   -65.7717     0.0000     0.0000 </r>
       <r>   -65.5351     0.0000     0.0000 </r>
       <r>   -65.2985     0.0000     0.0000 </r>
       <r>   -65.0619     0.0000     0.0000 </r>
       <r>   -64.8254     0.0000     0.0000 </r>
       <r>   -64.5888     0.0000     0.0000 </r>
       <r>   -64.3522     0.0000     0.0000 </r>
       <r>   -64.1156     0.0000     0.0000 </r>
       <r>   -63.8790     0.0000     0.0000 </r>
       <r>   -63.6424     0.0000     0.0000 </r>
       <r>   -63.4059     0.0000     0.0000 </r>
       <r>   -63.1693     0.0000     0.0000 </r>
       <r>   -62.9327     0.0000     0.0000 </r>
       <r>   -62.6961     0.0001     0.0000 </r>
       <r>   -62.4595    23.2302     5.4959 </r>
       <r>   -62.2229    52.5763    17.9346 </r>
       <r>   -61.9864     0.2766    18.0000 </r>
       <r>   -61.7498     0.0000    18.0000 </r>
       <r>   -61.5132     0.0000    18.0000 </r>
       <r>   -61.2766     0.0000    18.0000 </r>
       <r>   -61.0400     0.0000    18.0000 </r>
       <r>   -60.8034     0.0000    18.0000 </r>
       <r>   -60.5669     0.0000    18.0000 </r>
       <r>   -60.3303     0.0000    18.0000 </r>
       <r>   -60.0937     0.0000    18.0000 </r>
       <r>   -59.8571     0.0000    18.0000 </r>
       <r>   -59.6205     0.0000    18.0000 </r>
       <r>   -59.3840     0.0000    18.0000 </r>
       <r>   -59.1474     0.0000    18.0000 </r>
       <r>   -58.9108     0.0000    18.0000 </r>
       <r>   -58.6742     0.0000    18.0000 </r>
       <r>   -58.4376     0.0000    18.0000 </r>
       <r>   -58.2010     0.0000    18.0000 </r>
       <r>   -57.9645     0.0000    18.0000 </r>
       <r>   -57.7279     0.0000    18.0000 </r>
       <r>   -57.4913     0.0000    18.0000 </r>
       <r>   -57.2547     0.0000    18.0000 </r>
       <r>   -57.0181     0.0000    18.0000 </r>
       <r>   -56.7815     0.0000    18.0000 </r>
       <r>   -56.5450     0.0000    18.0000 </r>
       <r>   -56.3084     0.0000    18.0000 </r>
       <r>   -56.0718     0.0000    18.0000 </r>
       <r>   -55.8352     0.0000    18.0000 </r>
       <r>   -55.5986     0.0000    18.0000 </r>
       <r>   -55.3620     0.0000    18.0000 </r>
       <r>   -55.1255     0.0000    18.0000 </r>
       <r>   -54.8889     0.0000    18.0000 </r>
       <r>   -54.6523     0.0000    18.0000 </r>
       <r>   -54.4157     0.0000    18.0000 </r>
       <r>   -54.1791     0.0000    18.0000 </r>
       <r>   -53.9425     0.0000    18.0000 </r>
       <r>   -53.7060     0.0000    18.0000 </r>
       <r>   -53.4694     0.0000    18.0000 </r>
       <r>   -53.2328     0.0000    18.0000 </r>
       <r>   -52.9962     0.0000    18.0000 </r>
       <r>   -52.7596     0.0000    18.0000 </r>
       <r>   -52.5230     0.0000    18.0000 </r>
       <r>   -52.2865     0.0000    18.0000 </r>
       <r>   -52.0499     0.0000    18.0000 </r>
       <r>   -51.8133     0.0000    18.0000 </r>
       <r>   -51.5767     0.0000    18.0000 </r>
       <r>   -51.3401     0.0000    18.0000 </r>
       <r>   -51.1035     0.0000    18.0000 </r>
       <r>   -50.8670     0.0000    18.0000 </r>
       <r>   -50.6304     0.0000    18.0000 </r>
       <r>   -50.3938     0.0000    18.0000 </r>
       <r>   -50.1572     0.0000    18.0000 </r>
       <r>   -49.9206     0.0000    18.0000 </r>
       <r>   -49.6840     0.0000    18.0000 </r>
       <r>   -49.4475     0.0000    18.0000 </r>
       <r>   -49.2109     0.0000    18.0000 </r>
       <r>   -48.9743     0.0000    18.0000 </r>
       <r>   -48.7377     0.0000    18.0000 </r>
       <r>   -48.5011     0.0000    18.0000 </r>
       <r>   -48.2646     0.0000    18.0000 </r>
       <r>   -48.0280     0.0000    18.0000 </r>
       <r>   -47.7914     0.0000    18.0000 </r>
       <r>   -47.5548     0.0000    18.0000 </r>
       <r>   -47.3182     0.0000    18.0000 </r>
       <r>   -47.0816     0.0000    18.0000 </r>
       <r>   -46.8451     0.0000    18.0000 </r>
       <r>   -46.6085     0.0000    18.0000 </r>
       <r>   -46.3719     0.0000    18.0000 </r>
       <r>   -46.1353     0.0000    18.0000 </r>
       <r>   -45.8987     0.0000    18.0000 </r>
       <r>   -45.6621     0.0000    18.0000 </r>
       <r>   -45.4256     0.0000    18.0000 </r>
       <r>   -45.1890     0.0000    18.0000 </r>
       <r>   -44.9524     0.0000    18.0000 </r>
       <r>   -44.7158     0.0000    18.0000 </r>
       <r>   -44.4792     0.0000    18.0000 </r>
       <r>   -44.2426     0.0000    18.0000 </r>
       <r>   -44.0061     0.0000    18.0000 </r>
       <r>   -43.7695     0.0000    18.0000 </r>
       <r>   -43.5329     0.0000    18.0000 </r>
       <r>   -43.2963     0.0000    18.0000 </r>
       <r>   -43.0597     0.0000    18.0000 </r>
       <r>   -42.8231     0.0000    18.0000 </r>
       <r>   -42.5866     0.0000    18.0000 </r>
       <r>   -42.3500     0.0000    18.0000 </r>
       <r>   -42.1134     0.0000    18.0000 </r>
       <r>   -41.8768     0.0000    18.0000 </r>
       <r>   -41.6402     0.0000    18.0000 </r>
       <r>   -41.4036     0.0000    18.0000 </r>
       <r>   -41.1671     0.0000    18.0000 </r>
       <r>   -40.9305     0.0000    18.0000 </r>
       <r>   -40.6939     0.0000    18.0000 </r>
       <r>   -40.4573     0.0000    18.0000 </r>
       <r>   -40.2207     0.0000    18.0000 </r>
       <r>   -39.9841     0.0000    18.0000 </r>
       <r>   -39.7476     0.0000    18.0000 </r>
       <r>   -39.5110     0.0000    18.0000 </r>
       <r>   -39.2744     0.0000    18.0000 </r>
       <r>   -39.0378     0.0000    18.0000 </r>
       <r>   -38.8012     0.0000    18.0000 </r>
       <r>   -38.5647     0.0000    18.0000 </r>
       <r>   -38.3281     0.0000    18.0000 </r>
       <r>   -38.0915     0.0000    18.0000 </r>
       <r>   -37.8549     0.0000    18.0000 </r>
       <r>   -37.6183     0.0000    18.0000 </r>
       <r>   -37.3817     0.0000    18.0000 </r>
       <r>   -37.1452     0.0000    18.0000 </r>
       <r>   -36.9086     9.0463    20.1402 </r>
       <r>   -36.6720    58.3799    33.9519 </r>
       <r>   -36.4354    92.3636    55.8035 </r>
       <r>   -36.1988    67.9888    71.8885 </r>
       <r>   -35.9622     0.4712    72.0000 </r>
       <r>   -35.7257     0.0000    72.0000 </r>
       <r>   -35.4891     0.0000    72.0000 </r>
       <r>   -35.2525     0.0000    72.0000 </r>
       <r>   -35.0159     0.0000    72.0000 </r>
       <r>   -34.7793     0.0000    72.0000 </r>
       <r>   -34.5427     0.0000    72.0000 </r>
       <r>   -34.3062     0.0000    72.0000 </r>
       <r>   -34.0696     0.0000    72.0000 </r>
       <r>   -33.8330     0.0000    72.0000 </r>
       <r>   -33.5964     0.0000    72.0000 </r>
       <r>   -33.3598     0.0000    72.0000 </r>
       <r>   -33.1232     0.0000    72.0000 </r>
       <r>   -32.8867     0.0000    72.0000 </r>
       <r>   -32.6501     0.0000    72.0000 </r>
       <r>   -32.4135     0.0000    72.0000 </r>
       <r>   -32.1769     0.0000    72.0000 </r>
       <r>   -31.9403     0.0000    72.0000 </r>
       <r>   -31.7037     0.0000    72.0000 </r>
       <r>   -31.4672     0.0000    72.0000 </r>
       <r>   -31.2306     0.0000    72.0000 </r>
       <r>   -30.9940     0.0000    72.0000 </r>
       <r>   -30.7574     0.0000    72.0000 </r>
       <r>   -30.5208     0.0000    72.0000 </r>
       <r>   -30.2842     0.0000    72.0000 </r>
       <r>   -30.0477     0.0000    72.0000 </r>
       <r>   -29.8111     0.0000    72.0000 </r>
       <r>   -29.5745     0.0000    72.0000 </r>
       <r>   -29.3379     0.0000    72.0000 </r>
       <r>   -29.1013     0.0000    72.0000 </r>
       <r>   -28.8648     0.0000    72.0000 </r>
       <r>   -28.6282     0.0000    72.0000 </r>
       <r>   -28.3916     0.0000    72.0000 </r>
       <r>   -28.1550     0.0000    72.0000 </r>
       <r>   -27.9184     0.0000    72.0000 </r>
       <r>   -27.6818     0.0000    72.0000 </r>
       <r>   -27.4453     0.0000    72.0000 </r>
       <r>   -27.2087     0.0000    72.0000 </r>
       <r>   -26.9721     0.0000    72.0000 </r>
       <r>   -26.7355     0.0000    72.0000 </r>
       <r>   -26.4989     0.0000    72.0000 </r>
       <r>   -26.2623     0.0000    72.0000 </r>
       <r>   -26.0258     0.0000    72.0000 </r>
       <r>   -25.7892     0.0000    72.0000 </r>
       <r>   -25.5526     0.0000    72.0000 </r>
       <r>   -25.3160     0.0000    72.0000 </r>
       <r>   -25.0794     0.0000    72.0000 </r>
       <r>   -24.8428     0.0000    72.0000 </r>
       <r>   -24.6063     0.0000    72.0000 </r>
       <r>   -24.3697     0.0000    72.0000 </r>
       <r>   -24.1331     0.0000    72.0000 </r>
       <r>   -23.8965     0.0000    72.0000 </r>
       <r>   -23.6599     0.0000    72.0000 </r>
       <r>   -23.4233     0.0000    72.0000 </r>
       <r>   -23.1868     0.0000    72.0000 </r>
       <r>   -22.9502     0.0000    72.0000 </r>
       <r>   -22.7136     0.0000    72.0000 </r>
       <r>   -22.4770     0.0000    72.0000 </r>
       <r>   -22.2404     0.0000    72.0000 </r>
       <r>   -22.0038     0.0000    72.0000 </r>
       <r>   -21.7673     0.0000    72.0000 </r>
       <r>   -21.5307     0.0000    72.0000 </r>
       <r>   -21.2941     0.0000    72.0000 </r>
       <r>   -21.0575     0.0000    72.0000 </r>
       <r>   -20.8209     0.0000    72.0000 </r>
       <r>   -20.5843     0.0000    72.0000 </r>
       <r>   -20.3478     0.0000    72.0000 </r>
       <r>   -20.1112     0.0000    72.0000 </r>
       <r>   -19.8746     0.0000    72.0000 </r>
       <r>   -19.6380     0.0000    72.0000 </r>
       <r>   -19.4014     0.0000    72.0000 </r>
       <r>   -19.1648     0.0000    72.0000 </r>
       <r>   -18.9283     0.0000    72.0000 </r>
       <r>   -18.6917     0.0000    72.0000 </r>
       <r>   -18.4551     0.0000    72.0000 </r>
       <r>   -18.2185     0.0000    72.0000 </r>
       <r>   -17.9819     0.0000    72.0000 </r>
       <r>   -17.7454     0.0000    72.0000 </r>
       <r>   -17.5088     0.0000    72.0000 </r>
       <r>   -17.2722     0.0000    72.0000 </r>
       <r>   -17.0356     0.0000    72.0000 </r>
       <r>   -16.7990     0.0000    72.0000 </r>
       <r>   -16.5624     0.0000    72.0000 </r>
       <r>   -16.3259     0.0000    72.0000 </r>
       <r>   -16.0893     0.0000    72.0000 </r>
       <r>   -15.8527     0.0000    72.0000 </r>
       <r>   -15.6161     0.4292    72.1015 </r>
       <r>   -15.3795     4.1790    73.0902 </r>
       <r>   -15.1429     4.4735    74.1486 </r>
       <r>   -14.9064     5.1470    75.3663 </r>
       <r>   -14.6698     6.4833    76.9001 </r>
       <r>   -14.4332    13.5393    80.1033 </r>
       <r>   -14.1966    20.6389    84.9861 </r>
       <r>   -13.9600    25.9859    91.1339 </r>
       <r>   -13.7234    27.2906    97.5904 </r>
       <r>   -13.4869    18.0942   101.8712 </r>
       <r>   -13.2503    14.2162   105.2345 </r>
       <r>   -13.0137    11.6840   107.9988 </r>
       <r>   -12.7771     0.0053   108.0000 </r>
       <r>   -12.5405     0.0000   108.0000 </r>
       <r>   -12.3039     0.0000   108.0000 </r>
       <r>   -12.0674     0.0000   108.0000 </r>
       <r>   -11.8308     0.0000   108.0000 </r>
       <r>   -11.5942     0.0000   108.0000 </r>
       <r>   -11.3576     0.0000   108.0000 </r>
       <r>   -11.1210     0.0000   108.0000 </r>
       <r>   -10.8844     0.0000   108.0000 </r>
       <r>   -10.6479     0.0000   108.0000 </r>
       <r>   -10.4113     0.0000   108.0000 </r>
       <r>   -10.1747     0.0000   108.0000 </r>
       <r>    -9.9381     0.0000   108.0000 </r>
       <r>    -9.7015     0.0000   108.0000 </r>
       <r>    -9.4649     0.0000   108.0000 </r>
       <r>    -9.2284     0.0000   108.0000 </r>
       <r>    -8.9918     0.0000   108.0000 </r>
       <r>    -8.7552     0.0000   108.0000 </r>
       <r>    -8.5186     0.0000   108.0000 </r>
       <r>    -8.2820     0.0000   108.0000 </r>
       <r>    -8.0455     0.0000   108.0000 </r>
       <r>    -7.8089     0.0000   108.0000 </r>
       <r>    -7.5723     2.1562   108.5101 </r>
       <r>    -7.3357     7.7257   110.3379 </r>
       <r>    -7.0991     9.4476   112.5730 </r>
       <r>    -6.8625    14.7789   116.0695 </r>
       <r>    -6.6260    18.3805   120.4180 </r>
       <r>    -6.3894    23.1247   125.8889 </r>
       <r>    -6.1528    28.0976   132.5363 </r>
       <r>    -5.9162    22.5059   137.8608 </r>
       <r>    -5.6796    19.4398   142.4599 </r>
       <r>    -5.4430    19.2007   147.0025 </r>
       <r>    -5.2065    26.0892   153.1748 </r>
       <r>    -4.9699    34.7611   161.3987 </r>
       <r>    -4.7333    24.5181   167.1992 </r>
       <r>    -4.4967    15.7758   170.9315 </r>
       <r>    -4.2601    31.8894   178.4760 </r>
       <r>    -4.0235    26.5265   184.7517 </r>
       <r>    -3.7870    22.6329   190.1063 </r>
       <r>    -3.5504    22.3482   195.3935 </r>
       <r>    -3.3138    12.5516   198.3630 </r>
       <r>    -3.0772    16.3425   202.2293 </r>
       <r>    -2.8406    19.0603   206.7387 </r>
       <r>    -2.6040    15.4609   210.3965 </r>
       <r>    -2.3675    20.1635   215.1668 </r>
       <r>    -2.1309    25.3736   221.1698 </r>
       <r>    -1.8943    24.4687   226.9587 </r>
       <r>    -1.6577    18.7155   231.3864 </r>
       <r>    -1.4211    10.1580   233.7896 </r>
       <r>    -1.1845     0.8892   234.0000 </r>
       <r>    -0.9480     0.0000   234.0000 </r>
       <r>    -0.7114     1.0563   234.2499 </r>
       <r>    -0.4748    11.8785   237.0602 </r>
       <r>    -0.2382    15.1144   240.6360 </r>
       <r>    -0.0016    21.6962   245.7689 </r>
       <r>     0.2350    23.7695   251.3924 </r>
       <r>     0.4715     8.1018   253.3091 </r>
       <r>     0.7081    18.9221   257.7858 </r>
       <r>     0.9447     8.7224   259.8494 </r>
       <r>     1.1813    29.8991   266.9230 </r>
       <r>     1.4179    32.3519   274.5769 </r>
       <r>     1.6544    13.9705   277.8821 </r>
       <r>     1.8910     7.4169   279.6368 </r>
       <r>     2.1276     1.5352   280.0000 </r>
       <r>     2.3642     0.0000   280.0000 </r>
       <r>     2.6008     0.0000   280.0000 </r>
       <r>     2.8374     0.0000   280.0000 </r>
       <r>     3.0739     0.0000   280.0000 </r>
       <r>     3.3105     0.0000   280.0000 </r>
       <r>     3.5471     0.0000   280.0000 </r>
       <r>     3.7837     0.0000   280.0000 </r>
       <r>     4.0203     0.0000   280.0000 </r>
       <r>     4.2569     0.0000   280.0000 </r>
       <r>     4.4934     0.0000   280.0000 </r>
       <r>     4.7300     0.0000   280.0000 </r>
       <r>     4.9666     0.0000   280.0000 </r>
       <r>     5.2032     0.0000   280.0000 </r>
      </set>
     </set>
    </array>
   </total>
  </dos>
 </calculation>
 <structure name="finalpos" >
  <crystal>
   <varray name="basis" >
    <v>       9.56424100       0.00000000       0.00000000 </v>
    <v>      -4.78212000       8.28287600       0.00000000 </v>
    <v>      -0.00000000       0.00000000      18.15827300 </v>
   </varray>
   <i name="volume">   1438.48789588 </i>
   <varray name="rec_basis" >
    <v>       0.10455613       0.06036550       0.00000000 </v>
    <v>       0.00000000       0.12073101      -0.00000000 </v>
    <v>       0.00000000      -0.00000000       0.05507132 </v>
   </varray>
  </crystal>
  <varray name="positions" >
   <v>       0.03214796       0.01760795       0.50108057 </v>
   <v>       0.31185554       0.34197016       0.49734359 </v>
   <v>       0.63934789       0.01909018       0.50010829 </v>
   <v>       0.32074809       0.96338310       0.49782066 </v>
   <v>       0.36926391       0.68234137       0.49658712 </v>
   <v>       0.70738492       0.35520887       0.50490899 </v>
   <v>       0.98126354       0.29483856       0.50002538 </v>
   <v>       0.66441918       0.64197203       0.49503481 </v>
   <v>       0.98180767       0.68181507       0.49496243 </v>
   <v>       0.53951673       0.12374268       0.58823150 </v>
   <v>       0.22229439       0.12568575       0.59172814 </v>
   <v>       0.09687618       0.21173184       0.40649530 </v>
   <v>       0.22601802       0.44519402       0.58489665 </v>
   <v>       0.11145549       0.54819189       0.43245094 </v>
   <v>       0.22348232       0.77563569       0.58698970 </v>
   <v>       0.10644548       0.89449845       0.40931425 </v>
   <v>       0.45739992       0.23103825       0.43165966 </v>
   <v>       0.43694031       0.88332247       0.40601643 </v>
   <v>       0.56185826       0.44223665       0.58726836 </v>
   <v>       0.56478294       0.78142725       0.58496716 </v>
   <v>       0.45033620       0.54261983       0.40605672 </v>
   <v>       0.87626657       0.10010917       0.58957722 </v>
   <v>       0.77031717       0.22666010       0.41423983 </v>
   <v>       0.90618978       0.45260959       0.59111364 </v>
   <v>       0.77750100       0.54784553       0.40955115 </v>
   <v>       0.87517594       0.77370638       0.58500794 </v>
   <v>       0.77249349       0.89904835       0.43072228 </v>
  </varray>
 </structure>
</modeling>
