<?xml version="1.0" encoding="ISO-8859-1"?>
<modeling>
 <generator>
  <i name="program" type="string">vasp </i>
  <i name="version" type="string">6.2.0  </i>
  <i name="subversion" type="string">18Jan21 (build Mar 25 2021 14:28:09) complex                          parallel </i>
  <i name="platform" type="string">LinuxGNU </i>
  <i name="date" type="string">2022 08 19 </i>
  <i name="time" type="string">10:55:49 </i>
 </generator>
 <incar>
  <i type="string" name="SYSTEM">al</i>
  <i type="int" name="ISTART">     0</i>
  <i type="string" name="PREC">Accurate</i>
  <i type="string" name="ALGO">Normal</i>
  <i type="int" name="NSIM">     8</i>
  <i type="int" name="NELM">   200</i>
  <i type="int" name="IBRION">    -1</i>
  <i name="EDIFF">      0.00000100</i>
  <i type="int" name="NSW">     0</i>
  <i name="ENCUT">    600.00000000</i>
  <i type="string" name="LREAL">Auto</i>
  <i type="int" name="ISMEAR">     0</i>
  <i name="SIGMA">      0.05000000</i>
  <i type="int" name="LMAXPAW">    -1</i>
  <i type="logical" name="LWAVE"> F  </i>
  <i type="logical" name="LCHARG"> T  </i>
  <i type="string" name="GGA">PE</i>
 </incar>
 <primitive_cell>
  <structure name="primitive_cell" >
   <crystal>
    <varray name="basis" >
     <v>       8.07809510       0.00000000       0.00000000 </v>
     <v>       0.00000000       8.07809510       0.00000000 </v>
     <v>       0.00000000       0.00000000       8.07809510 </v>
    </varray>
    <i name="volume">    527.14110776 </i>
    <varray name="rec_basis" >
     <v>       0.12379156       0.00000000       0.00000000 </v>
     <v>       0.00000000       0.12379156       0.00000000 </v>
     <v>       0.00000000       0.00000000       0.12379156 </v>
    </varray>
   </crystal>
   <varray name="positions" >
    <v>       0.00321794       0.98646870       0.00047835 </v>
    <v>       0.00195900       0.25342317       0.23720333 </v>
    <v>       0.24609499       0.98602867       0.26312720 </v>
    <v>       0.23517318       0.24056381       0.99424327 </v>
    <v>       0.99573899       0.99283755       0.49368845 </v>
    <v>       0.99226755       0.22873388       0.74901759 </v>
    <v>       0.25584188       0.99964080       0.74390031 </v>
    <v>       0.25666254       0.24640045       0.48783961 </v>
    <v>       0.99973109       0.50987426       0.00104730 </v>
    <v>       0.00241771       0.74270487       0.23670583 </v>
    <v>       0.25247947       0.49471612       0.24345669 </v>
    <v>       0.26448429       0.74013442       0.99308053 </v>
    <v>       0.01675119       0.50378179       0.50740839 </v>
    <v>       0.99606177       0.76243383       0.75646678 </v>
    <v>       0.25675453       0.52167903       0.74565241 </v>
    <v>       0.24780268       0.75726807       0.49289053 </v>
    <v>       0.48119034       0.02712696       0.00258830 </v>
    <v>       0.50103369       0.25128778       0.24435890 </v>
    <v>       0.75511426       0.00905269       0.25522435 </v>
    <v>       0.76348511       0.25765254       0.99574552 </v>
    <v>       0.50315488       0.99955984       0.49922726 </v>
    <v>       0.49040508       0.24282368       0.73713820 </v>
    <v>       0.74192508       0.98372251       0.74780470 </v>
    <v>       0.75230794       0.27347998       0.51026959 </v>
    <v>       0.48407784       0.46909087       0.99502422 </v>
    <v>       0.50544401       0.75811847       0.22830399 </v>
    <v>       0.75079351       0.50413653       0.25133741 </v>
    <v>       0.73178148       0.74513249       0.98946247 </v>
    <v>       0.50171854       0.50879051       0.48725623 </v>
    <v>       0.49695722       0.74736247       0.75076994 </v>
    <v>       0.74382338       0.48687629       0.75005667 </v>
    <v>       0.76396491       0.73646909       0.51862765 </v>
   </varray>
  </structure>
  <varray name="primitive_index" >
   <v type="int" >        1 </v>
   <v type="int" >        2 </v>
   <v type="int" >        3 </v>
   <v type="int" >        4 </v>
   <v type="int" >        5 </v>
   <v type="int" >        6 </v>
   <v type="int" >        7 </v>
   <v type="int" >        8 </v>
   <v type="int" >        9 </v>
   <v type="int" >       10 </v>
   <v type="int" >       11 </v>
   <v type="int" >       12 </v>
   <v type="int" >       13 </v>
   <v type="int" >       14 </v>
   <v type="int" >       15 </v>
   <v type="int" >       16 </v>
   <v type="int" >       17 </v>
   <v type="int" >       18 </v>
   <v type="int" >       19 </v>
   <v type="int" >       20 </v>
   <v type="int" >       21 </v>
   <v type="int" >       22 </v>
   <v type="int" >       23 </v>
   <v type="int" >       24 </v>
   <v type="int" >       25 </v>
   <v type="int" >       26 </v>
   <v type="int" >       27 </v>
   <v type="int" >       28 </v>
   <v type="int" >       29 </v>
   <v type="int" >       30 </v>
   <v type="int" >       31 </v>
   <v type="int" >       32 </v>
  </varray>
 </primitive_cell>
 <kpoints>
  <generation param="Gamma">
   <v type="int" name="divisions">       9        9        9 </v>
   <v name="usershift">      0.00000000       0.00000000       0.00000000 </v>
   <v name="genvec1">      0.11111111       0.00000000       0.00000000 </v>
   <v name="genvec2">      0.00000000       0.11111111       0.00000000 </v>
   <v name="genvec3">      0.00000000       0.00000000       0.11111111 </v>
   <v name="shift">      0.00000000       0.00000000       0.00000000 </v>
  </generation>
  <varray name="kpointlist" >
   <v>       0.00000000       0.00000000       0.00000000 </v>
   <v>       0.11111111       0.00000000       0.00000000 </v>
   <v>       0.00000000       0.11111111       0.00000000 </v>
   <v>       0.00000000       0.00000000       0.11111111 </v>
   <v>       0.22222222       0.00000000       0.00000000 </v>
   <v>       0.00000000       0.22222222       0.00000000 </v>
   <v>       0.00000000       0.00000000       0.22222222 </v>
   <v>       0.33333333       0.00000000       0.00000000 </v>
   <v>       0.00000000       0.33333333       0.00000000 </v>
   <v>       0.00000000       0.00000000       0.33333333 </v>
   <v>       0.44444444       0.00000000       0.00000000 </v>
   <v>       0.00000000       0.44444444       0.00000000 </v>
   <v>       0.00000000       0.00000000       0.44444444 </v>
   <v>       0.11111111       0.11111111       0.00000000 </v>
   <v>       0.00000000       0.11111111       0.11111111 </v>
   <v>       0.11111111       0.00000000       0.11111111 </v>
   <v>      -0.11111111       0.11111111       0.00000000 </v>
   <v>      -0.11111111       0.00000000       0.11111111 </v>
   <v>       0.00000000      -0.11111111       0.11111111 </v>
   <v>       0.22222222       0.11111111       0.00000000 </v>
   <v>       0.00000000       0.22222222       0.11111111 </v>
   <v>       0.11111111       0.00000000       0.22222222 </v>
   <v>      -0.11111111       0.22222222       0.00000000 </v>
   <v>      -0.22222222       0.00000000       0.11111111 </v>
   <v>       0.00000000       0.11111111       0.22222222 </v>
   <v>       0.00000000      -0.22222222       0.11111111 </v>
   <v>      -0.11111111       0.00000000       0.22222222 </v>
   <v>       0.22222222       0.00000000       0.11111111 </v>
   <v>       0.00000000      -0.11111111       0.22222222 </v>
   <v>       0.22222222      -0.11111111       0.00000000 </v>
   <v>       0.11111111       0.22222222       0.00000000 </v>
   <v>       0.33333333       0.11111111       0.00000000 </v>
   <v>       0.00000000       0.33333333       0.11111111 </v>
   <v>       0.11111111       0.00000000       0.33333333 </v>
   <v>      -0.11111111       0.33333333       0.00000000 </v>
   <v>      -0.33333333       0.00000000       0.11111111 </v>
   <v>       0.00000000       0.11111111       0.33333333 </v>
   <v>       0.00000000      -0.33333333       0.11111111 </v>
   <v>      -0.11111111       0.00000000       0.33333333 </v>
   <v>       0.33333333       0.00000000       0.11111111 </v>
   <v>       0.00000000      -0.11111111       0.33333333 </v>
   <v>       0.33333333      -0.11111111       0.00000000 </v>
   <v>       0.11111111       0.33333333       0.00000000 </v>
   <v>       0.44444444       0.11111111       0.00000000 </v>
   <v>       0.00000000       0.44444444       0.11111111 </v>
   <v>       0.11111111       0.00000000       0.44444444 </v>
   <v>      -0.11111111       0.44444444       0.00000000 </v>
   <v>      -0.44444444       0.00000000       0.11111111 </v>
   <v>       0.00000000       0.11111111       0.44444444 </v>
   <v>       0.00000000      -0.44444444       0.11111111 </v>
   <v>      -0.11111111       0.00000000       0.44444444 </v>
   <v>       0.44444444       0.00000000       0.11111111 </v>
   <v>       0.00000000      -0.11111111       0.44444444 </v>
   <v>       0.44444444      -0.11111111       0.00000000 </v>
   <v>       0.11111111       0.44444444       0.00000000 </v>
   <v>       0.22222222       0.22222222       0.00000000 </v>
   <v>       0.00000000       0.22222222       0.22222222 </v>
   <v>       0.22222222       0.00000000       0.22222222 </v>
   <v>      -0.22222222       0.22222222       0.00000000 </v>
   <v>      -0.22222222       0.00000000       0.22222222 </v>
   <v>       0.00000000      -0.22222222       0.22222222 </v>
   <v>       0.33333333       0.22222222       0.00000000 </v>
   <v>       0.00000000       0.33333333       0.22222222 </v>
   <v>       0.22222222       0.00000000       0.33333333 </v>
   <v>      -0.22222222       0.33333333       0.00000000 </v>
   <v>      -0.33333333       0.00000000       0.22222222 </v>
   <v>       0.00000000       0.22222222       0.33333333 </v>
   <v>       0.00000000      -0.33333333       0.22222222 </v>
   <v>      -0.22222222       0.00000000       0.33333333 </v>
   <v>       0.33333333       0.00000000       0.22222222 </v>
   <v>       0.00000000      -0.22222222       0.33333333 </v>
   <v>       0.33333333      -0.22222222       0.00000000 </v>
   <v>       0.22222222       0.33333333       0.00000000 </v>
   <v>       0.44444444       0.22222222       0.00000000 </v>
   <v>       0.00000000       0.44444444       0.22222222 </v>
   <v>       0.22222222       0.00000000       0.44444444 </v>
   <v>      -0.22222222       0.44444444       0.00000000 </v>
   <v>      -0.44444444       0.00000000       0.22222222 </v>
   <v>       0.00000000       0.22222222       0.44444444 </v>
   <v>       0.00000000      -0.44444444       0.22222222 </v>
   <v>      -0.22222222       0.00000000       0.44444444 </v>
   <v>       0.44444444       0.00000000       0.22222222 </v>
   <v>       0.00000000      -0.22222222       0.44444444 </v>
   <v>       0.44444444      -0.22222222       0.00000000 </v>
   <v>       0.22222222       0.44444444       0.00000000 </v>
   <v>       0.33333333       0.33333333       0.00000000 </v>
   <v>       0.00000000       0.33333333       0.33333333 </v>
   <v>       0.33333333       0.00000000       0.33333333 </v>
   <v>      -0.33333333       0.33333333       0.00000000 </v>
   <v>      -0.33333333       0.00000000       0.33333333 </v>
   <v>       0.00000000      -0.33333333       0.33333333 </v>
   <v>       0.44444444       0.33333333       0.00000000 </v>
   <v>       0.00000000       0.44444444       0.33333333 </v>
   <v>       0.33333333       0.00000000       0.44444444 </v>
   <v>      -0.33333333       0.44444444       0.00000000 </v>
   <v>      -0.44444444       0.00000000       0.33333333 </v>
   <v>       0.00000000       0.33333333       0.44444444 </v>
   <v>       0.00000000      -0.44444444       0.33333333 </v>
   <v>      -0.33333333       0.00000000       0.44444444 </v>
   <v>       0.44444444       0.00000000       0.33333333 </v>
   <v>       0.00000000      -0.33333333       0.44444444 </v>
   <v>       0.44444444      -0.33333333       0.00000000 </v>
   <v>       0.33333333       0.44444444       0.00000000 </v>
   <v>       0.44444444       0.44444444       0.00000000 </v>
   <v>       0.00000000       0.44444444       0.44444444 </v>
   <v>       0.44444444       0.00000000       0.44444444 </v>
   <v>      -0.44444444       0.44444444       0.00000000 </v>
   <v>      -0.44444444       0.00000000       0.44444444 </v>
   <v>       0.00000000      -0.44444444       0.44444444 </v>
   <v>       0.11111111       0.11111111       0.11111111 </v>
   <v>      -0.11111111       0.11111111       0.11111111 </v>
   <v>      -0.11111111      -0.11111111       0.11111111 </v>
   <v>       0.11111111      -0.11111111       0.11111111 </v>
   <v>       0.22222222       0.11111111       0.11111111 </v>
   <v>       0.11111111       0.22222222       0.11111111 </v>
   <v>       0.11111111       0.11111111       0.22222222 </v>
   <v>      -0.11111111       0.22222222       0.11111111 </v>
   <v>      -0.22222222       0.11111111       0.11111111 </v>
   <v>      -0.11111111       0.11111111       0.22222222 </v>
   <v>      -0.22222222      -0.11111111       0.11111111 </v>
   <v>      -0.11111111      -0.22222222       0.11111111 </v>
   <v>      -0.11111111      -0.11111111       0.22222222 </v>
   <v>       0.11111111      -0.22222222       0.11111111 </v>
   <v>       0.22222222      -0.11111111       0.11111111 </v>
   <v>       0.11111111      -0.11111111       0.22222222 </v>
   <v>       0.33333333       0.11111111       0.11111111 </v>
   <v>       0.11111111       0.33333333       0.11111111 </v>
   <v>       0.11111111       0.11111111       0.33333333 </v>
   <v>      -0.11111111       0.33333333       0.11111111 </v>
   <v>      -0.33333333       0.11111111       0.11111111 </v>
   <v>      -0.11111111       0.11111111       0.33333333 </v>
   <v>      -0.33333333      -0.11111111       0.11111111 </v>
   <v>      -0.11111111      -0.33333333       0.11111111 </v>
   <v>      -0.11111111      -0.11111111       0.33333333 </v>
   <v>       0.11111111      -0.33333333       0.11111111 </v>
   <v>       0.33333333      -0.11111111       0.11111111 </v>
   <v>       0.11111111      -0.11111111       0.33333333 </v>
   <v>       0.44444444       0.11111111       0.11111111 </v>
   <v>       0.11111111       0.44444444       0.11111111 </v>
   <v>       0.11111111       0.11111111       0.44444444 </v>
   <v>      -0.11111111       0.44444444       0.11111111 </v>
   <v>      -0.44444444       0.11111111       0.11111111 </v>
   <v>      -0.11111111       0.11111111       0.44444444 </v>
   <v>      -0.44444444      -0.11111111       0.11111111 </v>
   <v>      -0.11111111      -0.44444444       0.11111111 </v>
   <v>      -0.11111111      -0.11111111       0.44444444 </v>
   <v>       0.11111111      -0.44444444       0.11111111 </v>
   <v>       0.44444444      -0.11111111       0.11111111 </v>
   <v>       0.11111111      -0.11111111       0.44444444 </v>
   <v>       0.22222222       0.22222222       0.11111111 </v>
   <v>       0.11111111       0.22222222       0.22222222 </v>
   <v>       0.22222222       0.11111111       0.22222222 </v>
   <v>      -0.22222222       0.22222222       0.11111111 </v>
   <v>      -0.22222222       0.11111111       0.22222222 </v>
   <v>      -0.11111111       0.22222222       0.22222222 </v>
   <v>      -0.22222222      -0.22222222       0.11111111 </v>
   <v>      -0.11111111      -0.22222222       0.22222222 </v>
   <v>      -0.22222222      -0.11111111       0.22222222 </v>
   <v>       0.22222222      -0.22222222       0.11111111 </v>
   <v>       0.22222222      -0.11111111       0.22222222 </v>
   <v>       0.11111111      -0.22222222       0.22222222 </v>
   <v>       0.33333333       0.22222222       0.11111111 </v>
   <v>       0.11111111       0.33333333       0.22222222 </v>
   <v>       0.22222222       0.11111111       0.33333333 </v>
   <v>      -0.22222222       0.33333333       0.11111111 </v>
   <v>      -0.33333333       0.11111111       0.22222222 </v>
   <v>      -0.11111111       0.22222222       0.33333333 </v>
   <v>      -0.33333333      -0.22222222       0.11111111 </v>
   <v>      -0.11111111      -0.33333333       0.22222222 </v>
   <v>      -0.22222222      -0.11111111       0.33333333 </v>
   <v>       0.22222222      -0.33333333       0.11111111 </v>
   <v>       0.33333333      -0.11111111       0.22222222 </v>
   <v>       0.11111111      -0.22222222       0.33333333 </v>
   <v>       0.11111111      -0.33333333      -0.22222222 </v>
   <v>       0.22222222      -0.11111111      -0.33333333 </v>
   <v>       0.33333333      -0.22222222      -0.11111111 </v>
   <v>       0.11111111       0.22222222      -0.33333333 </v>
   <v>       0.22222222       0.33333333      -0.11111111 </v>
   <v>       0.33333333       0.11111111      -0.22222222 </v>
   <v>      -0.22222222       0.11111111      -0.33333333 </v>
   <v>      -0.33333333       0.22222222      -0.11111111 </v>
   <v>      -0.11111111       0.33333333      -0.22222222 </v>
   <v>      -0.33333333      -0.11111111      -0.22222222 </v>
   <v>      -0.22222222      -0.33333333      -0.11111111 </v>
   <v>      -0.11111111      -0.22222222      -0.33333333 </v>
   <v>       0.44444444       0.22222222       0.11111111 </v>
   <v>       0.11111111       0.44444444       0.22222222 </v>
   <v>       0.22222222       0.11111111       0.44444444 </v>
   <v>      -0.22222222       0.44444444       0.11111111 </v>
   <v>      -0.44444444       0.11111111       0.22222222 </v>
   <v>      -0.11111111       0.22222222       0.44444444 </v>
   <v>      -0.44444444      -0.22222222       0.11111111 </v>
   <v>      -0.11111111      -0.44444444       0.22222222 </v>
   <v>      -0.22222222      -0.11111111       0.44444444 </v>
   <v>       0.22222222      -0.44444444       0.11111111 </v>
   <v>       0.44444444      -0.11111111       0.22222222 </v>
   <v>       0.11111111      -0.22222222       0.44444444 </v>
   <v>       0.11111111      -0.44444444      -0.22222222 </v>
   <v>       0.22222222      -0.11111111      -0.44444444 </v>
   <v>       0.44444444      -0.22222222      -0.11111111 </v>
   <v>       0.11111111       0.22222222      -0.44444444 </v>
   <v>       0.22222222       0.44444444      -0.11111111 </v>
   <v>       0.44444444       0.11111111      -0.22222222 </v>
   <v>      -0.22222222       0.11111111      -0.44444444 </v>
   <v>      -0.44444444       0.22222222      -0.11111111 </v>
   <v>      -0.11111111       0.44444444      -0.22222222 </v>
   <v>      -0.44444444      -0.11111111      -0.22222222 </v>
   <v>      -0.22222222      -0.44444444      -0.11111111 </v>
   <v>      -0.11111111      -0.22222222      -0.44444444 </v>
   <v>       0.33333333       0.33333333       0.11111111 </v>
   <v>       0.11111111       0.33333333       0.33333333 </v>
   <v>       0.33333333       0.11111111       0.33333333 </v>
   <v>      -0.33333333       0.33333333       0.11111111 </v>
   <v>      -0.33333333       0.11111111       0.33333333 </v>
   <v>      -0.11111111       0.33333333       0.33333333 </v>
   <v>      -0.33333333      -0.33333333       0.11111111 </v>
   <v>      -0.11111111      -0.33333333       0.33333333 </v>
   <v>      -0.33333333      -0.11111111       0.33333333 </v>
   <v>       0.33333333      -0.33333333       0.11111111 </v>
   <v>       0.33333333      -0.11111111       0.33333333 </v>
   <v>       0.11111111      -0.33333333       0.33333333 </v>
   <v>       0.44444444       0.33333333       0.11111111 </v>
   <v>       0.11111111       0.44444444       0.33333333 </v>
   <v>       0.33333333       0.11111111       0.44444444 </v>
   <v>      -0.33333333       0.44444444       0.11111111 </v>
   <v>      -0.44444444       0.11111111       0.33333333 </v>
   <v>      -0.11111111       0.33333333       0.44444444 </v>
   <v>      -0.44444444      -0.33333333       0.11111111 </v>
   <v>      -0.11111111      -0.44444444       0.33333333 </v>
   <v>      -0.33333333      -0.11111111       0.44444444 </v>
   <v>       0.33333333      -0.44444444       0.11111111 </v>
   <v>       0.44444444      -0.11111111       0.33333333 </v>
   <v>       0.11111111      -0.33333333       0.44444444 </v>
   <v>       0.11111111      -0.44444444      -0.33333333 </v>
   <v>       0.33333333      -0.11111111      -0.44444444 </v>
   <v>       0.44444444      -0.33333333      -0.11111111 </v>
   <v>       0.11111111       0.33333333      -0.44444444 </v>
   <v>       0.33333333       0.44444444      -0.11111111 </v>
   <v>       0.44444444       0.11111111      -0.33333333 </v>
   <v>      -0.33333333       0.11111111      -0.44444444 </v>
   <v>      -0.44444444       0.33333333      -0.11111111 </v>
   <v>      -0.11111111       0.44444444      -0.33333333 </v>
   <v>      -0.44444444      -0.11111111      -0.33333333 </v>
   <v>      -0.33333333      -0.44444444      -0.11111111 </v>
   <v>      -0.11111111      -0.33333333      -0.44444444 </v>
   <v>       0.44444444       0.44444444       0.11111111 </v>
   <v>       0.11111111       0.44444444       0.44444444 </v>
   <v>       0.44444444       0.11111111       0.44444444 </v>
   <v>      -0.44444444       0.44444444       0.11111111 </v>
   <v>      -0.44444444       0.11111111       0.44444444 </v>
   <v>      -0.11111111       0.44444444       0.44444444 </v>
   <v>      -0.44444444      -0.44444444       0.11111111 </v>
   <v>      -0.11111111      -0.44444444       0.44444444 </v>
   <v>      -0.44444444      -0.11111111       0.44444444 </v>
   <v>       0.44444444      -0.44444444       0.11111111 </v>
   <v>       0.44444444      -0.11111111       0.44444444 </v>
   <v>       0.11111111      -0.44444444       0.44444444 </v>
   <v>       0.22222222       0.22222222       0.22222222 </v>
   <v>      -0.22222222       0.22222222       0.22222222 </v>
   <v>      -0.22222222      -0.22222222       0.22222222 </v>
   <v>       0.22222222      -0.22222222       0.22222222 </v>
   <v>       0.33333333       0.22222222       0.22222222 </v>
   <v>       0.22222222       0.33333333       0.22222222 </v>
   <v>       0.22222222       0.22222222       0.33333333 </v>
   <v>      -0.22222222       0.33333333       0.22222222 </v>
   <v>      -0.33333333       0.22222222       0.22222222 </v>
   <v>      -0.22222222       0.22222222       0.33333333 </v>
   <v>      -0.33333333      -0.22222222       0.22222222 </v>
   <v>      -0.22222222      -0.33333333       0.22222222 </v>
   <v>      -0.22222222      -0.22222222       0.33333333 </v>
   <v>       0.22222222      -0.33333333       0.22222222 </v>
   <v>       0.33333333      -0.22222222       0.22222222 </v>
   <v>       0.22222222      -0.22222222       0.33333333 </v>
   <v>       0.44444444       0.22222222       0.22222222 </v>
   <v>       0.22222222       0.44444444       0.22222222 </v>
   <v>       0.22222222       0.22222222       0.44444444 </v>
   <v>      -0.22222222       0.44444444       0.22222222 </v>
   <v>      -0.44444444       0.22222222       0.22222222 </v>
   <v>      -0.22222222       0.22222222       0.44444444 </v>
   <v>      -0.44444444      -0.22222222       0.22222222 </v>
   <v>      -0.22222222      -0.44444444       0.22222222 </v>
   <v>      -0.22222222      -0.22222222       0.44444444 </v>
   <v>       0.22222222      -0.44444444       0.22222222 </v>
   <v>       0.44444444      -0.22222222       0.22222222 </v>
   <v>       0.22222222      -0.22222222       0.44444444 </v>
   <v>       0.33333333       0.33333333       0.22222222 </v>
   <v>       0.22222222       0.33333333       0.33333333 </v>
   <v>       0.33333333       0.22222222       0.33333333 </v>
   <v>      -0.33333333       0.33333333       0.22222222 </v>
   <v>      -0.33333333       0.22222222       0.33333333 </v>
   <v>      -0.22222222       0.33333333       0.33333333 </v>
   <v>      -0.33333333      -0.33333333       0.22222222 </v>
   <v>      -0.22222222      -0.33333333       0.33333333 </v>
   <v>      -0.33333333      -0.22222222       0.33333333 </v>
   <v>       0.33333333      -0.33333333       0.22222222 </v>
   <v>       0.33333333      -0.22222222       0.33333333 </v>
   <v>       0.22222222      -0.33333333       0.33333333 </v>
   <v>       0.44444444       0.33333333       0.22222222 </v>
   <v>       0.22222222       0.44444444       0.33333333 </v>
   <v>       0.33333333       0.22222222       0.44444444 </v>
   <v>      -0.33333333       0.44444444       0.22222222 </v>
   <v>      -0.44444444       0.22222222       0.33333333 </v>
   <v>      -0.22222222       0.33333333       0.44444444 </v>
   <v>      -0.44444444      -0.33333333       0.22222222 </v>
   <v>      -0.22222222      -0.44444444       0.33333333 </v>
   <v>      -0.33333333      -0.22222222       0.44444444 </v>
   <v>       0.33333333      -0.44444444       0.22222222 </v>
   <v>       0.44444444      -0.22222222       0.33333333 </v>
   <v>       0.22222222      -0.33333333       0.44444444 </v>
   <v>       0.22222222      -0.44444444      -0.33333333 </v>
   <v>       0.33333333      -0.22222222      -0.44444444 </v>
   <v>       0.44444444      -0.33333333      -0.22222222 </v>
   <v>       0.22222222       0.33333333      -0.44444444 </v>
   <v>       0.33333333       0.44444444      -0.22222222 </v>
   <v>       0.44444444       0.22222222      -0.33333333 </v>
   <v>      -0.33333333       0.22222222      -0.44444444 </v>
   <v>      -0.44444444       0.33333333      -0.22222222 </v>
   <v>      -0.22222222       0.44444444      -0.33333333 </v>
   <v>      -0.44444444      -0.22222222      -0.33333333 </v>
   <v>      -0.33333333      -0.44444444      -0.22222222 </v>
   <v>      -0.22222222      -0.33333333      -0.44444444 </v>
   <v>       0.44444444       0.44444444       0.22222222 </v>
   <v>       0.22222222       0.44444444       0.44444444 </v>
   <v>       0.44444444       0.22222222       0.44444444 </v>
   <v>      -0.44444444       0.44444444       0.22222222 </v>
   <v>      -0.44444444       0.22222222       0.44444444 </v>
   <v>      -0.22222222       0.44444444       0.44444444 </v>
   <v>      -0.44444444      -0.44444444       0.22222222 </v>
   <v>      -0.22222222      -0.44444444       0.44444444 </v>
   <v>      -0.44444444      -0.22222222       0.44444444 </v>
   <v>       0.44444444      -0.44444444       0.22222222 </v>
   <v>       0.44444444      -0.22222222       0.44444444 </v>
   <v>       0.22222222      -0.44444444       0.44444444 </v>
   <v>       0.33333333       0.33333333       0.33333333 </v>
   <v>      -0.33333333       0.33333333       0.33333333 </v>
   <v>      -0.33333333      -0.33333333       0.33333333 </v>
   <v>       0.33333333      -0.33333333       0.33333333 </v>
   <v>       0.44444444       0.33333333       0.33333333 </v>
   <v>       0.33333333       0.44444444       0.33333333 </v>
   <v>       0.33333333       0.33333333       0.44444444 </v>
   <v>      -0.33333333       0.44444444       0.33333333 </v>
   <v>      -0.44444444       0.33333333       0.33333333 </v>
   <v>      -0.33333333       0.33333333       0.44444444 </v>
   <v>      -0.44444444      -0.33333333       0.33333333 </v>
   <v>      -0.33333333      -0.44444444       0.33333333 </v>
   <v>      -0.33333333      -0.33333333       0.44444444 </v>
   <v>       0.33333333      -0.44444444       0.33333333 </v>
   <v>       0.44444444      -0.33333333       0.33333333 </v>
   <v>       0.33333333      -0.33333333       0.44444444 </v>
   <v>       0.44444444       0.44444444       0.33333333 </v>
   <v>       0.33333333       0.44444444       0.44444444 </v>
   <v>       0.44444444       0.33333333       0.44444444 </v>
   <v>      -0.44444444       0.44444444       0.33333333 </v>
   <v>      -0.44444444       0.33333333       0.44444444 </v>
   <v>      -0.33333333       0.44444444       0.44444444 </v>
   <v>      -0.44444444      -0.44444444       0.33333333 </v>
   <v>      -0.33333333      -0.44444444       0.44444444 </v>
   <v>      -0.44444444      -0.33333333       0.44444444 </v>
   <v>       0.44444444      -0.44444444       0.33333333 </v>
   <v>       0.44444444      -0.33333333       0.44444444 </v>
   <v>       0.33333333      -0.44444444       0.44444444 </v>
   <v>       0.44444444       0.44444444       0.44444444 </v>
   <v>      -0.44444444       0.44444444       0.44444444 </v>
   <v>      -0.44444444      -0.44444444       0.44444444 </v>
   <v>       0.44444444      -0.44444444       0.44444444 </v>
  </varray>
  <varray name="weights" >
   <v>       0.00137174 </v>
   <v>       0.00274348 </v>
   <v>       0.00274348 </v>
   <v>       0.00274348 </v>
   <v>       0.00274348 </v>
   <v>       0.00274348 </v>
   <v>       0.00274348 </v>
   <v>       0.00274348 </v>
   <v>       0.00274348 </v>
   <v>       0.00274348 </v>
   <v>       0.00274348 </v>
   <v>       0.00274348 </v>
   <v>       0.00274348 </v>
   <v>       0.00274348 </v>
   <v>       0.00274348 </v>
   <v>       0.00274348 </v>
   <v>       0.00274348 </v>
   <v>       0.00274348 </v>
   <v>       0.00274348 </v>
   <v>       0.00274348 </v>
   <v>       0.00274348 </v>
   <v>       0.00274348 </v>
   <v>       0.00274348 </v>
   <v>       0.00274348 </v>
   <v>       0.00274348 </v>
   <v>       0.00274348 </v>
   <v>       0.00274348 </v>
   <v>       0.00274348 </v>
   <v>       0.00274348 </v>
   <v>       0.00274348 </v>
   <v>       0.00274348 </v>
   <v>       0.00274348 </v>
   <v>       0.00274348 </v>
   <v>       0.00274348 </v>
   <v>       0.00274348 </v>
   <v>       0.00274348 </v>
   <v>       0.00274348 </v>
   <v>       0.00274348 </v>
   <v>       0.00274348 </v>
   <v>       0.00274348 </v>
   <v>       0.00274348 </v>
   <v>       0.00274348 </v>
   <v>       0.00274348 </v>
   <v>       0.00274348 </v>
   <v>       0.00274348 </v>
   <v>       0.00274348 </v>
   <v>       0.00274348 </v>
   <v>       0.00274348 </v>
   <v>       0.00274348 </v>
   <v>       0.00274348 </v>
   <v>       0.00274348 </v>
   <v>       0.00274348 </v>
   <v>       0.00274348 </v>
   <v>       0.00274348 </v>
   <v>       0.00274348 </v>
   <v>       0.00274348 </v>
   <v>       0.00274348 </v>
   <v>       0.00274348 </v>
   <v>       0.00274348 </v>
   <v>       0.00274348 </v>
   <v>       0.00274348 </v>
   <v>       0.00274348 </v>
   <v>       0.00274348 </v>
   <v>       0.00274348 </v>
   <v>       0.00274348 </v>
   <v>       0.00274348 </v>
   <v>       0.00274348 </v>
   <v>       0.00274348 </v>
   <v>       0.00274348 </v>
   <v>       0.00274348 </v>
   <v>       0.00274348 </v>
   <v>       0.00274348 </v>
   <v>       0.00274348 </v>
   <v>       0.00274348 </v>
   <v>       0.00274348 </v>
   <v>       0.00274348 </v>
   <v>       0.00274348 </v>
   <v>       0.00274348 </v>
   <v>       0.00274348 </v>
   <v>       0.00274348 </v>
   <v>       0.00274348 </v>
   <v>       0.00274348 </v>
   <v>       0.00274348 </v>
   <v>       0.00274348 </v>
   <v>       0.00274348 </v>
   <v>       0.00274348 </v>
   <v>       0.00274348 </v>
   <v>       0.00274348 </v>
   <v>       0.00274348 </v>
   <v>       0.00274348 </v>
   <v>       0.00274348 </v>
   <v>       0.00274348 </v>
   <v>       0.00274348 </v>
   <v>       0.00274348 </v>
   <v>       0.00274348 </v>
   <v>       0.00274348 </v>
   <v>       0.00274348 </v>
   <v>       0.00274348 </v>
   <v>       0.00274348 </v>
   <v>       0.00274348 </v>
   <v>       0.00274348 </v>
   <v>       0.00274348 </v>
   <v>       0.00274348 </v>
   <v>       0.00274348 </v>
   <v>       0.00274348 </v>
   <v>       0.00274348 </v>
   <v>       0.00274348 </v>
   <v>       0.00274348 </v>
   <v>       0.00274348 </v>
   <v>       0.00274348 </v>
   <v>       0.00274348 </v>
   <v>       0.00274348 </v>
   <v>       0.00274348 </v>
   <v>       0.00274348 </v>
   <v>       0.00274348 </v>
   <v>       0.00274348 </v>
   <v>       0.00274348 </v>
   <v>       0.00274348 </v>
   <v>       0.00274348 </v>
   <v>       0.00274348 </v>
   <v>       0.00274348 </v>
   <v>       0.00274348 </v>
   <v>       0.00274348 </v>
   <v>       0.00274348 </v>
   <v>       0.00274348 </v>
   <v>       0.00274348 </v>
   <v>       0.00274348 </v>
   <v>       0.00274348 </v>
   <v>       0.00274348 </v>
   <v>       0.00274348 </v>
   <v>       0.00274348 </v>
   <v>       0.00274348 </v>
   <v>       0.00274348 </v>
   <v>       0.00274348 </v>
   <v>       0.00274348 </v>
   <v>       0.00274348 </v>
   <v>       0.00274348 </v>
   <v>       0.00274348 </v>
   <v>       0.00274348 </v>
   <v>       0.00274348 </v>
   <v>       0.00274348 </v>
   <v>       0.00274348 </v>
   <v>       0.00274348 </v>
   <v>       0.00274348 </v>
   <v>       0.00274348 </v>
   <v>       0.00274348 </v>
   <v>       0.00274348 </v>
   <v>       0.00274348 </v>
   <v>       0.00274348 </v>
   <v>       0.00274348 </v>
   <v>       0.00274348 </v>
   <v>       0.00274348 </v>
   <v>       0.00274348 </v>
   <v>       0.00274348 </v>
   <v>       0.00274348 </v>
   <v>       0.00274348 </v>
   <v>       0.00274348 </v>
   <v>       0.00274348 </v>
   <v>       0.00274348 </v>
   <v>       0.00274348 </v>
   <v>       0.00274348 </v>
   <v>       0.00274348 </v>
   <v>       0.00274348 </v>
   <v>       0.00274348 </v>
   <v>       0.00274348 </v>
   <v>       0.00274348 </v>
   <v>       0.00274348 </v>
   <v>       0.00274348 </v>
   <v>       0.00274348 </v>
   <v>       0.00274348 </v>
   <v>       0.00274348 </v>
   <v>       0.00274348 </v>
   <v>       0.00274348 </v>
   <v>       0.00274348 </v>
   <v>       0.00274348 </v>
   <v>       0.00274348 </v>
   <v>       0.00274348 </v>
   <v>       0.00274348 </v>
   <v>       0.00274348 </v>
   <v>       0.00274348 </v>
   <v>       0.00274348 </v>
   <v>       0.00274348 </v>
   <v>       0.00274348 </v>
   <v>       0.00274348 </v>
   <v>       0.00274348 </v>
   <v>       0.00274348 </v>
   <v>       0.00274348 </v>
   <v>       0.00274348 </v>
   <v>       0.00274348 </v>
   <v>       0.00274348 </v>
   <v>       0.00274348 </v>
   <v>       0.00274348 </v>
   <v>       0.00274348 </v>
   <v>       0.00274348 </v>
   <v>       0.00274348 </v>
   <v>       0.00274348 </v>
   <v>       0.00274348 </v>
   <v>       0.00274348 </v>
   <v>       0.00274348 </v>
   <v>       0.00274348 </v>
   <v>       0.00274348 </v>
   <v>       0.00274348 </v>
   <v>       0.00274348 </v>
   <v>       0.00274348 </v>
   <v>       0.00274348 </v>
   <v>       0.00274348 </v>
   <v>       0.00274348 </v>
   <v>       0.00274348 </v>
   <v>       0.00274348 </v>
   <v>       0.00274348 </v>
   <v>       0.00274348 </v>
   <v>       0.00274348 </v>
   <v>       0.00274348 </v>
   <v>       0.00274348 </v>
   <v>       0.00274348 </v>
   <v>       0.00274348 </v>
   <v>       0.00274348 </v>
   <v>       0.00274348 </v>
   <v>       0.00274348 </v>
   <v>       0.00274348 </v>
   <v>       0.00274348 </v>
   <v>       0.00274348 </v>
   <v>       0.00274348 </v>
   <v>       0.00274348 </v>
   <v>       0.00274348 </v>
   <v>       0.00274348 </v>
   <v>       0.00274348 </v>
   <v>       0.00274348 </v>
   <v>       0.00274348 </v>
   <v>       0.00274348 </v>
   <v>       0.00274348 </v>
   <v>       0.00274348 </v>
   <v>       0.00274348 </v>
   <v>       0.00274348 </v>
   <v>       0.00274348 </v>
   <v>       0.00274348 </v>
   <v>       0.00274348 </v>
   <v>       0.00274348 </v>
   <v>       0.00274348 </v>
   <v>       0.00274348 </v>
   <v>       0.00274348 </v>
   <v>       0.00274348 </v>
   <v>       0.00274348 </v>
   <v>       0.00274348 </v>
   <v>       0.00274348 </v>
   <v>       0.00274348 </v>
   <v>       0.00274348 </v>
   <v>       0.00274348 </v>
   <v>       0.00274348 </v>
   <v>       0.00274348 </v>
   <v>       0.00274348 </v>
   <v>       0.00274348 </v>
   <v>       0.00274348 </v>
   <v>       0.00274348 </v>
   <v>       0.00274348 </v>
   <v>       0.00274348 </v>
   <v>       0.00274348 </v>
   <v>       0.00274348 </v>
   <v>       0.00274348 </v>
   <v>       0.00274348 </v>
   <v>       0.00274348 </v>
   <v>       0.00274348 </v>
   <v>       0.00274348 </v>
   <v>       0.00274348 </v>
   <v>       0.00274348 </v>
   <v>       0.00274348 </v>
   <v>       0.00274348 </v>
   <v>       0.00274348 </v>
   <v>       0.00274348 </v>
   <v>       0.00274348 </v>
   <v>       0.00274348 </v>
   <v>       0.00274348 </v>
   <v>       0.00274348 </v>
   <v>       0.00274348 </v>
   <v>       0.00274348 </v>
   <v>       0.00274348 </v>
   <v>       0.00274348 </v>
   <v>       0.00274348 </v>
   <v>       0.00274348 </v>
   <v>       0.00274348 </v>
   <v>       0.00274348 </v>
   <v>       0.00274348 </v>
   <v>       0.00274348 </v>
   <v>       0.00274348 </v>
   <v>       0.00274348 </v>
   <v>       0.00274348 </v>
   <v>       0.00274348 </v>
   <v>       0.00274348 </v>
   <v>       0.00274348 </v>
   <v>       0.00274348 </v>
   <v>       0.00274348 </v>
   <v>       0.00274348 </v>
   <v>       0.00274348 </v>
   <v>       0.00274348 </v>
   <v>       0.00274348 </v>
   <v>       0.00274348 </v>
   <v>       0.00274348 </v>
   <v>       0.00274348 </v>
   <v>       0.00274348 </v>
   <v>       0.00274348 </v>
   <v>       0.00274348 </v>
   <v>       0.00274348 </v>
   <v>       0.00274348 </v>
   <v>       0.00274348 </v>
   <v>       0.00274348 </v>
   <v>       0.00274348 </v>
   <v>       0.00274348 </v>
   <v>       0.00274348 </v>
   <v>       0.00274348 </v>
   <v>       0.00274348 </v>
   <v>       0.00274348 </v>
   <v>       0.00274348 </v>
   <v>       0.00274348 </v>
   <v>       0.00274348 </v>
   <v>       0.00274348 </v>
   <v>       0.00274348 </v>
   <v>       0.00274348 </v>
   <v>       0.00274348 </v>
   <v>       0.00274348 </v>
   <v>       0.00274348 </v>
   <v>       0.00274348 </v>
   <v>       0.00274348 </v>
   <v>       0.00274348 </v>
   <v>       0.00274348 </v>
   <v>       0.00274348 </v>
   <v>       0.00274348 </v>
   <v>       0.00274348 </v>
   <v>       0.00274348 </v>
   <v>       0.00274348 </v>
   <v>       0.00274348 </v>
   <v>       0.00274348 </v>
   <v>       0.00274348 </v>
   <v>       0.00274348 </v>
   <v>       0.00274348 </v>
   <v>       0.00274348 </v>
   <v>       0.00274348 </v>
   <v>       0.00274348 </v>
   <v>       0.00274348 </v>
   <v>       0.00274348 </v>
   <v>       0.00274348 </v>
   <v>       0.00274348 </v>
   <v>       0.00274348 </v>
   <v>       0.00274348 </v>
   <v>       0.00274348 </v>
   <v>       0.00274348 </v>
   <v>       0.00274348 </v>
   <v>       0.00274348 </v>
   <v>       0.00274348 </v>
   <v>       0.00274348 </v>
   <v>       0.00274348 </v>
   <v>       0.00274348 </v>
   <v>       0.00274348 </v>
   <v>       0.00274348 </v>
   <v>       0.00274348 </v>
   <v>       0.00274348 </v>
   <v>       0.00274348 </v>
   <v>       0.00274348 </v>
   <v>       0.00274348 </v>
   <v>       0.00274348 </v>
   <v>       0.00274348 </v>
   <v>       0.00274348 </v>
   <v>       0.00274348 </v>
   <v>       0.00274348 </v>
   <v>       0.00274348 </v>
   <v>       0.00274348 </v>
  </varray>
 </kpoints>
 <parameters>
  <separator name="general" >
   <i type="string" name="SYSTEM">al</i>
   <i type="logical" name="LCOMPAT"> F  </i>
  </separator>
  <separator name="electronic" >
   <i type="string" name="PREC">accura</i>
   <i name="ENMAX">    600.00000000</i>
   <i name="ENAUG">    291.05200000</i>
   <i name="EDIFF">      0.00000100</i>
   <i type="int" name="IALGO">    38</i>
   <i type="int" name="IWAVPR">    10</i>
   <i type="int" name="NBANDS">    72</i>
   <i type="int" name="NBANDSLOW">    -1</i>
   <i type="int" name="NBANDSHIGH">    -1</i>
   <i name="NELECT">     96.00000000</i>
   <i type="int" name="TURBO">     0</i>
   <i type="int" name="IRESTART">     0</i>
   <i type="int" name="NREBOOT">     0</i>
   <i type="int" name="NMIN">     0</i>
   <i name="EREF">      0.00000000</i>
   <separator name="electronic smearing" >
    <i type="int" name="ISMEAR">     0</i>
    <i name="SIGMA">      0.05000000</i>
    <i name="KSPACING">      0.50000000</i>
    <i type="logical" name="KGAMMA"> T  </i>
    <i type="logical" name="KBLOWUP"> T  </i>
   </separator>
   <separator name="electronic projectors" >
    <i type="logical" name="LREAL"> T  </i>
    <v name="ROPT">     -0.00025000</v>
    <i type="int" name="LMAXPAW">    -1</i>
    <i type="int" name="LMAXMIX">     2</i>
    <i type="logical" name="NLSPLINE"> F  </i>
   </separator>
   <separator name="electronic startup" >
    <i type="int" name="ISTART">     0</i>
    <i type="int" name="ICHARG">     2</i>
    <i type="int" name="INIWAV">     1</i>
   </separator>
   <separator name="electronic spin" >
    <i type="int" name="ISPIN">     1</i>
    <i type="logical" name="LNONCOLLINEAR"> F  </i>
    <v name="MAGMOM">      1.00000000      1.00000000      1.00000000      1.00000000      1.00000000      1.00000000      1.00000000      1.00000000      1.00000000      1.00000000      1.00000000      1.00000000      1.00000000      1.00000000      1.00000000      1.00000000      1.00000000      1.00000000      1.00000000      1.00000000
      1.00000000      1.00000000      1.00000000      1.00000000      1.00000000      1.00000000      1.00000000      1.00000000      1.00000000      1.00000000      1.00000000      1.00000000</v>
    <i name="NUPDOWN">     -1.00000000</i>
    <i type="logical" name="LSORBIT"> F  </i>
    <v name="SAXIS">      0.00000000      0.00000000      1.00000000</v>
    <i type="logical" name="LSPIRAL"> F  </i>
    <v name="QSPIRAL">      0.00000000      0.00000000      0.00000000</v>
    <i type="logical" name="LZEROZ"> F  </i>
   </separator>
   <separator name="electronic exchange-correlation" >
    <i type="logical" name="LASPH"> F  </i>
    <i type="logical" name="LMETAGGA"> F  </i>
   </separator>
   <separator name="electronic convergence" >
    <i type="int" name="NELM">   200</i>
    <i type="int" name="NELMDL">    -5</i>
    <i type="int" name="NELMIN">     2</i>
    <i name="ENINI">    600.00000000</i>
    <separator name="electronic convergence detail" >
     <i type="logical" name="LDIAG"> T  </i>
     <i type="logical" name="LSUBROT"> F  </i>
     <i name="WEIMIN">      0.00000000</i>
     <i name="EBREAK">      0.00000000</i>
     <i name="DEPER">      0.30000000</i>
     <i type="int" name="NRMM">     4</i>
     <i name="TIME">      0.40000000</i>
    </separator>
   </separator>
   <separator name="electronic mixer" >
    <i name="AMIX">      0.40000000</i>
    <i name="BMIX">      1.00000000</i>
    <i name="AMIN">      0.10000000</i>
    <i name="AMIX_MAG">      1.60000000</i>
    <i name="BMIX_MAG">      1.00000000</i>
    <separator name="electronic mixer details" >
     <i type="int" name="IMIX">     4</i>
     <i type="logical" name="MIXFIRST"> F  </i>
     <i type="int" name="MAXMIX">   -45</i>
     <i name="WC">    100.00000000</i>
     <i type="int" name="INIMIX">     1</i>
     <i type="int" name="MIXPRE">     1</i>
     <i type="int" name="MREMOVE">     5</i>
    </separator>
   </separator>
   <separator name="electronic dipolcorrection" >
    <i type="logical" name="LDIPOL"> F  </i>
    <i type="logical" name="LMONO"> F  </i>
    <i type="int" name="IDIPOL">     0</i>
    <i name="EPSILON">      1.00000000</i>
    <v name="DIPOL">   -100.00000000   -100.00000000   -100.00000000</v>
    <i name="EFIELD">      0.00000000</i>
   </separator>
  </separator>
  <separator name="grids" >
   <i type="int" name="NGX">    70</i>
   <i type="int" name="NGY">    70</i>
   <i type="int" name="NGZ">    70</i>
   <i type="int" name="NGXF">   140</i>
   <i type="int" name="NGYF">   140</i>
   <i type="int" name="NGZF">   140</i>
   <i type="logical" name="ADDGRID"> F  </i>
  </separator>
  <separator name="ionic" >
   <i type="int" name="NSW">     0</i>
   <i type="int" name="IBRION">    -1</i>
   <i type="int" name="MDALGO">     0</i>
   <i type="int" name="ISIF">     2</i>
   <i name="PSTRESS">      0.00000000</i>
   <i name="EDIFFG">      0.00001000</i>
   <i type="int" name="NFREE">     0</i>
   <i name="POTIM">      0.50000000</i>
   <i name="SMASS">     -3.00000000</i>
   <i name="SCALEE">      1.00000000</i>
  </separator>
  <separator name="ionic md" >
   <i name="TEBEG">      0.00010000</i>
   <i name="TEEND">      0.00010000</i>
   <i type="int" name="NBLOCK">     1</i>
   <i type="int" name="KBLOCK">     1</i>
   <i type="int" name="NPACO">   256</i>
   <i name="APACO">     16.00000000</i>
  </separator>
  <separator name="symmetry" >
   <i type="int" name="ISYM">     2</i>
   <i name="SYMPREC">      0.00001000</i>
  </separator>
  <separator name="dos" >
   <i type="int" name="LORBIT">     0</i>
   <v name="RWIGS">     -1.00000000</v>
   <i type="int" name="NEDOS">   301</i>
   <i name="EMIN">     10.00000000</i>
   <i name="EMAX">    -10.00000000</i>
   <i name="EFERMI">      0.00000000</i>
  </separator>
  <separator name="writing" >
   <i type="int" name="NWRITE">     2</i>
   <i type="logical" name="LWAVE"> F  </i>
   <i type="logical" name="LDOWNSAMPLE"> F  </i>
   <i type="logical" name="LCHARG"> T  </i>
   <i type="logical" name="LPARD"> F  </i>
   <i type="logical" name="LVTOT"> F  </i>
   <i type="logical" name="LVHAR"> F  </i>
   <i type="logical" name="LELF"> F  </i>
   <i type="logical" name="LOPTICS"> F  </i>
   <v name="STM">      0.00000000      0.00000000      0.00000000      0.00000000      0.00000000      0.00000000      0.00000000</v>
  </separator>
  <separator name="performance" >
   <i type="int" name="NPAR">     8</i>
   <i type="int" name="NSIM">     8</i>
   <i type="int" name="NBLK">    -1</i>
   <i type="logical" name="LPLANE"> T  </i>
   <i type="logical" name="LSCALAPACK"> T  </i>
   <i type="logical" name="LSCAAWARE"> F  </i>
   <i type="logical" name="LSCALU"> F  </i>
   <i type="logical" name="LASYNC"> F  </i>
   <i type="logical" name="LORBITALREAL"> F  </i>
  </separator>
  <separator name="miscellaneous" >
   <i type="int" name="IDIOT">     3</i>
   <i type="int" name="PHON_NSTRUCT">    -1</i>
   <i type="logical" name="LMUSIC"> F  </i>
   <v name="POMASS">     26.98100000</v>
   <v name="DARWINR">      0.00000000</v>
   <v name="DARWINV">      1.00000000</v>
   <i type="logical" name="LCORR"> T  </i>
  </separator>
  <i type="logical" name="GGA_COMPAT"> T  </i>
  <i type="logical" name="LBERRY"> F  </i>
  <i type="int" name="ICORELEVEL">     0</i>
  <i type="logical" name="LDAU"> F  </i>
  <i type="int" name="I_CONSTRAINED_M">     0</i>
  <separator name="electronic exchange-correlation" >
   <i type="string" name="GGA">PE</i>
   <i type="int" name="VOSKOWN">     0</i>
   <i type="logical" name="LHFCALC"> F  </i>
   <i type="string" name="PRECFOCK"></i>
   <i type="logical" name="LSYMGRAD"> F  </i>
   <i type="logical" name="LHFONE"> F  </i>
   <i type="logical" name="LRHFCALC"> F  </i>
   <i type="logical" name="LTHOMAS"> F  </i>
   <i type="logical" name="LMODELHF"> F  </i>
   <i type="logical" name="LFOCKACE"> F  </i>
   <i name="ENCUT4O">     -1.00000000</i>
   <i type="int" name="EXXOEP">     0</i>
   <i type="int" name="FOURORBIT">     0</i>
   <i name="AEXX">      0.00000000</i>
   <i name="HFALPHA">      0.00000000</i>
   <i name="MCALPHA">      0.00000000</i>
   <i name="ALDAX">      1.00000000</i>
   <i name="AGGAX">      1.00000000</i>
   <i name="ALDAC">      1.00000000</i>
   <i name="AGGAC">      1.00000000</i>
   <i type="int" name="NKREDX">     1</i>
   <i type="int" name="NKREDY">     1</i>
   <i type="int" name="NKREDZ">     1</i>
   <i type="logical" name="SHIFTRED"> F  </i>
   <i type="logical" name="ODDONLY"> F  </i>
   <i type="logical" name="EVENONLY"> F  </i>
   <i type="int" name="LMAXFOCK">     0</i>
   <i type="int" name="NMAXFOCKAE">     0</i>
   <i type="logical" name="LFOCKAEDFT"> F  </i>
   <i name="HFSCREEN">      0.00000000</i>
   <i name="HFSCREENC">      0.00000000</i>
   <i type="int" name="NBANDSGWLOW">     0</i>
  </separator>
  <separator name="vdW DFT" >
   <i type="logical" name="LUSE_VDW"> F  </i>
   <i name="Zab_VDW">     -0.84910000</i>
   <i name="PARAM1">      0.12340000</i>
   <i name="PARAM2">      1.00000000</i>
   <i name="PARAM3">      0.00000000</i>
  </separator>
  <separator name="model GW" >
   <i type="int" name="MODEL_GW">     0</i>
   <i name="MODEL_EPS0">      9.88389577</i>
   <i name="MODEL_ALPHA">      1.00000000</i>
  </separator>
  <separator name="linear response parameters" >
   <i type="logical" name="LEPSILON"> F  </i>
   <i type="logical" name="LRPA"> F  </i>
   <i type="logical" name="LNABLA"> F  </i>
   <i type="logical" name="LVEL"> F  </i>
   <i type="int" name="KINTER">     0</i>
   <i name="CSHIFT">      0.10000000</i>
   <i name="OMEGAMAX">     -1.00000000</i>
   <i name="DEG_THRESHOLD">      0.00200000</i>
   <i name="RTIME">     -0.10000000</i>
   <i name="WPLASMAI">      0.00000000</i>
   <v name="DFIELD">      0.00000000      0.00000000      0.00000000</v>
   <v name="WPLASMA">      0.00000000      0.00000000      0.00000000      0.00000000      0.00000000      0.00000000      0.00000000      0.00000000      0.00000000</v>
  </separator>
  <separator name="orbital magnetization" >
   <i type="logical" name="NUCIND"> F  </i>
   <v name="MAGPOS">      0.00000000      0.00000000      0.00000000</v>
   <i type="logical" name="LNICSALL"> T  </i>
   <i type="logical" name="ORBITALMAG"> F  </i>
   <i type="logical" name="LMAGBLOCH"> F  </i>
   <i type="logical" name="LCHIMAG"> F  </i>
   <i type="logical" name="LGAUGE"> T  </i>
   <i type="int" name="MAGATOM">     0</i>
   <v name="MAGDIPOL">      0.00000000      0.00000000      0.00000000</v>
   <v name="AVECCONST">      0.00000000      0.00000000      0.00000000</v>
  </separator>
  <separator name="response functions" >
   <i type="logical" name="LFINITE_TEMPERATURE"> F  </i>
   <i type="logical" name="LADDER"> F  </i>
   <i type="logical" name="LRPAFORCE"> F  </i>
   <i type="logical" name="LFXC"> F  </i>
   <i type="logical" name="LHARTREE"> T  </i>
   <i type="int" name="IBSE">     0</i>
   <v type="int" name="KPOINT">    -1     0     0     0</v>
   <i type="logical" name="LTCTC"> F  </i>
   <i type="logical" name="LTCTE"> F  </i>
   <i type="logical" name="LTETE"> F  </i>
   <i type="logical" name="LTRIPLET"> F  </i>
   <i type="logical" name="LFXCEPS"> F  </i>
   <i type="logical" name="LFXHEG"> F  </i>
   <i type="int" name="NATURALO">     2</i>
   <i type="logical" name="LHOLEGF"> F  </i>
   <i type="logical" name="L2ORDER"> F  </i>
   <i type="logical" name="LDMP1"> F  </i>
   <i type="logical" name="LMP2LT"> F  </i>
   <i type="logical" name="LSMP2LT"> F  </i>
   <i type="logical" name="LGWLF"> F  </i>
   <i name="ENCUTGW">     -2.00000000</i>
   <i name="ENCUTGWSOFT">     -2.00000000</i>
   <i name="ENCUTLF">     -1.00000000</i>
   <i type="logical" name="LESF_SPLINES"> F  </i>
   <i type="int" name="LMAXMP2">    -1</i>
   <i name="SCISSOR">      0.00000000</i>
   <i type="int" name="NOMEGA">     0</i>
   <i type="int" name="NOMEGAR">     0</i>
   <i type="int" name="NBANDSGW">    -1</i>
   <i type="int" name="NBANDSO">    -1</i>
   <i type="int" name="NBANDSV">    -1</i>
   <i type="int" name="NELM">   200</i>
   <i type="int" name="NELMHF">     1</i>
   <i type="int" name="DIM">     3</i>
   <i type="int" name="IESPILON">     4</i>
   <i type="int" name="ANTIRES">     0</i>
   <i name="OMEGAMAX">    -30.00000000</i>
   <i name="OMEGAMIN">    -30.00000000</i>
   <i name="OMEGATL">   -200.00000000</i>
   <i type="int" name="OMEGAGRID">     0</i>
   <i name="CSHIFT">     -0.10000000</i>
   <i type="logical" name="LSELFENERGY"> F  </i>
   <i type="logical" name="LSPECTRAL"> F  </i>
   <i type="logical" name="LSPECTRALGW"> F  </i>
   <i type="logical" name="LSINGLES"> F  </i>
   <i type="logical" name="LFERMIGW"> F  </i>
   <i type="logical" name="ODDONLYGW"> F  </i>
   <i type="logical" name="EVENONLYGW"> F  </i>
   <i type="int" name="NKREDLFX">     1</i>
   <i type="int" name="NKREDLFY">     1</i>
   <i type="int" name="NKREDLFZ">     1</i>
   <i type="int" name="MAXMEM">  2800</i>
   <i type="int" name="TELESCOPE">     0</i>
   <i type="int" name="NTAUPAR">    -1</i>
   <i type="int" name="NOMEGAPAR">    -1</i>
   <i name="DAMP_NEWTON">      0.80000001</i>
   <i name="LAMBDA">      1.00000000</i>
  </separator>
  <separator name="External order field" >
   <i name="OFIELD_KAPPA">      0.00000000</i>
   <v name="OFIELD_K">      0.00000000      0.00000000      0.00000000</v>
   <i name="OFIELD_Q6_NEAR">      0.00000000</i>
   <i name="OFIELD_Q6_FAR">      0.00000000</i>
   <i name="OFIELD_A">      0.00000000</i>
  </separator>
 </parameters>
 <atominfo>
  <atoms>      32 </atoms>
  <types>       1 </types>
  <array name="atoms" >
   <dimension dim="1">ion</dimension>
   <field type="string">element</field>
   <field type="int">atomtype</field>
   <set>
    <rc><c>Al</c><c>   1</c></rc>
    <rc><c>Al</c><c>   1</c></rc>
    <rc><c>Al</c><c>   1</c></rc>
    <rc><c>Al</c><c>   1</c></rc>
    <rc><c>Al</c><c>   1</c></rc>
    <rc><c>Al</c><c>   1</c></rc>
    <rc><c>Al</c><c>   1</c></rc>
    <rc><c>Al</c><c>   1</c></rc>
    <rc><c>Al</c><c>   1</c></rc>
    <rc><c>Al</c><c>   1</c></rc>
    <rc><c>Al</c><c>   1</c></rc>
    <rc><c>Al</c><c>   1</c></rc>
    <rc><c>Al</c><c>   1</c></rc>
    <rc><c>Al</c><c>   1</c></rc>
    <rc><c>Al</c><c>   1</c></rc>
    <rc><c>Al</c><c>   1</c></rc>
    <rc><c>Al</c><c>   1</c></rc>
    <rc><c>Al</c><c>   1</c></rc>
    <rc><c>Al</c><c>   1</c></rc>
    <rc><c>Al</c><c>   1</c></rc>
    <rc><c>Al</c><c>   1</c></rc>
    <rc><c>Al</c><c>   1</c></rc>
    <rc><c>Al</c><c>   1</c></rc>
    <rc><c>Al</c><c>   1</c></rc>
    <rc><c>Al</c><c>   1</c></rc>
    <rc><c>Al</c><c>   1</c></rc>
    <rc><c>Al</c><c>   1</c></rc>
    <rc><c>Al</c><c>   1</c></rc>
    <rc><c>Al</c><c>   1</c></rc>
    <rc><c>Al</c><c>   1</c></rc>
    <rc><c>Al</c><c>   1</c></rc>
    <rc><c>Al</c><c>   1</c></rc>
   </set>
  </array>
  <array name="atomtypes" >
   <dimension dim="1">type</dimension>
   <field type="int">atomspertype</field>
   <field type="string">element</field>
   <field>mass</field>
   <field>valence</field>
   <field type="string">pseudopotential</field>
   <set>
    <rc><c>  32</c><c>Al</c><c>     26.98100000</c><c>      3.00000000</c><c>  PAW_PBE Al 04Jan2001                  </c></rc>
   </set>
  </array>
 </atominfo>
 <structure name="initialpos" >
  <crystal>
   <varray name="basis" >
    <v>       8.07809510       0.00000000       0.00000000 </v>
    <v>       0.00000000       8.07809510       0.00000000 </v>
    <v>       0.00000000       0.00000000       8.07809510 </v>
   </varray>
   <i name="volume">    527.14110776 </i>
   <varray name="rec_basis" >
    <v>       0.12379156       0.00000000       0.00000000 </v>
    <v>       0.00000000       0.12379156       0.00000000 </v>
    <v>       0.00000000       0.00000000       0.12379156 </v>
   </varray>
  </crystal>
  <varray name="positions" >
   <v>       0.00321794       0.98646870       0.00047835 </v>
   <v>       0.00195900       0.25342317       0.23720333 </v>
   <v>       0.24609499       0.98602867       0.26312720 </v>
   <v>       0.23517318       0.24056381       0.99424327 </v>
   <v>       0.99573899       0.99283755       0.49368845 </v>
   <v>       0.99226755       0.22873388       0.74901759 </v>
   <v>       0.25584188       0.99964080       0.74390031 </v>
   <v>       0.25666254       0.24640045       0.48783961 </v>
   <v>       0.99973109       0.50987426       0.00104730 </v>
   <v>       0.00241771       0.74270487       0.23670583 </v>
   <v>       0.25247947       0.49471612       0.24345669 </v>
   <v>       0.26448429       0.74013442       0.99308053 </v>
   <v>       0.01675119       0.50378179       0.50740839 </v>
   <v>       0.99606177       0.76243383       0.75646678 </v>
   <v>       0.25675453       0.52167903       0.74565241 </v>
   <v>       0.24780268       0.75726807       0.49289053 </v>
   <v>       0.48119034       0.02712696       0.00258830 </v>
   <v>       0.50103369       0.25128778       0.24435890 </v>
   <v>       0.75511426       0.00905269       0.25522435 </v>
   <v>       0.76348511       0.25765254       0.99574552 </v>
   <v>       0.50315488       0.99955984       0.49922726 </v>
   <v>       0.49040508       0.24282368       0.73713820 </v>
   <v>       0.74192508       0.98372251       0.74780470 </v>
   <v>       0.75230794       0.27347998       0.51026959 </v>
   <v>       0.48407784       0.46909087       0.99502422 </v>
   <v>       0.50544401       0.75811847       0.22830399 </v>
   <v>       0.75079351       0.50413653       0.25133741 </v>
   <v>       0.73178148       0.74513249       0.98946247 </v>
   <v>       0.50171854       0.50879051       0.48725623 </v>
   <v>       0.49695722       0.74736247       0.75076994 </v>
   <v>       0.74382338       0.48687629       0.75005667 </v>
   <v>       0.76396491       0.73646909       0.51862765 </v>
  </varray>
 </structure>
 <calculation>
  <scstep>
   <time name="dav">   46.78   47.11</time>
   <time name="total">   46.84   47.17</time>
   <energy>
    <i name="alphaZ">     -6.52466918 </i>
    <i name="ewald">  -2347.86202295 </i>
    <i name="hartreedc">     -5.47663858 </i>
    <i name="XCdc">   -839.48700946 </i>
    <i name="pawpsdc">   2118.40502803 </i>
    <i name="pawaedc">  -1095.85986421 </i>
    <i name="eentropy">     -0.00787175 </i>
    <i name="bandstr">    601.12960943 </i>
    <i name="atom">   1713.23359074 </i>
    <i name="e_fr_energy">    137.55015206 </i>
    <i name="e_wo_entrp">    137.55802381 </i>
    <i name="e_0_energy">    137.55408794 </i>
   </energy>
  </scstep>
  <scstep>
   <time name="dav">   53.27   53.65</time>
   <time name="total">   53.28   53.66</time>
   <energy>
    <i name="e_fr_energy">   -106.49784097 </i>
    <i name="e_wo_entrp">   -106.48342194 </i>
    <i name="e_0_energy">   -106.49063145 </i>
   </energy>
  </scstep>
  <scstep>
   <time name="dav">   56.75   57.14</time>
   <time name="total">   56.76   57.15</time>
   <energy>
    <i name="e_fr_energy">   -119.39147738 </i>
    <i name="e_wo_entrp">   -119.37575720 </i>
    <i name="e_0_energy">   -119.38361729 </i>
   </energy>
  </scstep>
  <scstep>
   <time name="dav">   54.94   55.31</time>
   <time name="total">   54.95   55.32</time>
   <energy>
    <i name="e_fr_energy">   -119.62968366 </i>
    <i name="e_wo_entrp">   -119.61398301 </i>
    <i name="e_0_energy">   -119.62183333 </i>
   </energy>
  </scstep>
  <scstep>
   <time name="dav">   55.04   55.40</time>
   <time name="total">   57.61   57.98</time>
   <energy>
    <i name="e_fr_energy">   -119.63226559 </i>
    <i name="e_wo_entrp">   -119.61656780 </i>
    <i name="e_0_energy">   -119.62441669 </i>
   </energy>
  </scstep>
  <scstep>
   <time name="dav">   58.34   58.71</time>
   <time name="total">   61.30   61.70</time>
   <energy>
    <i name="e_fr_energy">   -119.04615305 </i>
    <i name="e_wo_entrp">   -119.03064843 </i>
    <i name="e_0_energy">   -119.03840074 </i>
   </energy>
  </scstep>
  <scstep>
   <time name="dav">   57.29   57.67</time>
   <time name="total">   60.29   60.69</time>
   <energy>
    <i name="e_fr_energy">   -118.76287779 </i>
    <i name="e_wo_entrp">   -118.74750851 </i>
    <i name="e_0_energy">   -118.75519315 </i>
   </energy>
  </scstep>
  <scstep>
   <time name="dav">   58.83   59.22</time>
   <time name="total">   61.81   62.22</time>
   <energy>
    <i name="e_fr_energy">   -118.73867164 </i>
    <i name="e_wo_entrp">   -118.72317413 </i>
    <i name="e_0_energy">   -118.73092288 </i>
   </energy>
  </scstep>
  <scstep>
   <time name="dav">   57.54   57.90</time>
   <time name="total">   60.52   60.90</time>
   <energy>
    <i name="e_fr_energy">   -118.73726523 </i>
    <i name="e_wo_entrp">   -118.72174398 </i>
    <i name="e_0_energy">   -118.72950461 </i>
   </energy>
  </scstep>
  <scstep>
   <time name="dav">   59.59   59.99</time>
   <time name="total">   62.58   63.00</time>
   <energy>
    <i name="e_fr_energy">   -118.73717254 </i>
    <i name="e_wo_entrp">   -118.72164456 </i>
    <i name="e_0_energy">   -118.72940855 </i>
   </energy>
  </scstep>
  <scstep>
   <time name="dav">   58.85   59.23</time>
   <time name="total">   61.86   62.26</time>
   <energy>
    <i name="e_fr_energy">   -118.73717256 </i>
    <i name="e_wo_entrp">   -118.72164428 </i>
    <i name="e_0_energy">   -118.72940842 </i>
   </energy>
  </scstep>
  <scstep>
   <time name="dav">   39.68   39.94</time>
   <time name="total">   39.76   40.03</time>
   <energy>
    <i name="alphaZ">     -6.52466918 </i>
    <i name="ewald">  -2347.86202295 </i>
    <i name="hartreedc">     -6.57469977 </i>
    <i name="XCdc">   -835.90446455 </i>
    <i name="pawpsdc">   2118.40502803 </i>
    <i name="pawaedc">  -1095.85986421 </i>
    <i name="eentropy">     -0.01552827 </i>
    <i name="bandstr">    342.36545767 </i>
    <i name="atom">   1713.23359074 </i>
    <i name="e_fr_energy">   -118.73717249 </i>
    <i name="e_wo_entrp">   -118.72164422 </i>
    <i name="e_0_energy">   -118.72940836 </i>
   </energy>
  </scstep>
  <structure>
   <crystal>
    <varray name="basis" >
     <v>       8.07809510       0.00000000       0.00000000 </v>
     <v>       0.00000000       8.07809510       0.00000000 </v>
     <v>       0.00000000       0.00000000       8.07809510 </v>
    </varray>
    <i name="volume">    527.14110776 </i>
    <varray name="rec_basis" >
     <v>       0.12379156       0.00000000       0.00000000 </v>
     <v>       0.00000000       0.12379156       0.00000000 </v>
     <v>       0.00000000       0.00000000       0.12379156 </v>
    </varray>
   </crystal>
   <varray name="positions" >
    <v>       0.00321794       0.98646870       0.00047835 </v>
    <v>       0.00195900       0.25342317       0.23720333 </v>
    <v>       0.24609499       0.98602867       0.26312720 </v>
    <v>       0.23517318       0.24056381       0.99424327 </v>
    <v>       0.99573899       0.99283755       0.49368845 </v>
    <v>       0.99226755       0.22873388       0.74901759 </v>
    <v>       0.25584188       0.99964080       0.74390031 </v>
    <v>       0.25666254       0.24640045       0.48783961 </v>
    <v>       0.99973109       0.50987426       0.00104730 </v>
    <v>       0.00241771       0.74270487       0.23670583 </v>
    <v>       0.25247947       0.49471612       0.24345669 </v>
    <v>       0.26448429       0.74013442       0.99308053 </v>
    <v>       0.01675119       0.50378179       0.50740839 </v>
    <v>       0.99606177       0.76243383       0.75646678 </v>
    <v>       0.25675453       0.52167903       0.74565241 </v>
    <v>       0.24780268       0.75726807       0.49289053 </v>
    <v>       0.48119034       0.02712696       0.00258830 </v>
    <v>       0.50103369       0.25128778       0.24435890 </v>
    <v>       0.75511426       0.00905269       0.25522435 </v>
    <v>       0.76348511       0.25765254       0.99574552 </v>
    <v>       0.50315488       0.99955984       0.49922726 </v>
    <v>       0.49040508       0.24282368       0.73713820 </v>
    <v>       0.74192508       0.98372251       0.74780470 </v>
    <v>       0.75230794       0.27347998       0.51026959 </v>
    <v>       0.48407784       0.46909087       0.99502422 </v>
    <v>       0.50544401       0.75811847       0.22830399 </v>
    <v>       0.75079351       0.50413653       0.25133741 </v>
    <v>       0.73178148       0.74513249       0.98946247 </v>
    <v>       0.50171854       0.50879051       0.48725623 </v>
    <v>       0.49695722       0.74736247       0.75076994 </v>
    <v>       0.74382338       0.48687629       0.75005667 </v>
    <v>       0.76396491       0.73646909       0.51862765 </v>
   </varray>
  </structure>
  <varray name="forces" >
   <v>      -0.15113097       0.21057770       0.15550682 </v>
   <v>      -0.05424235      -0.08739094       0.54976361 </v>
   <v>       0.08478944       0.50728358      -0.68909353 </v>
   <v>      -0.17935616       0.34718861      -0.08628596 </v>
   <v>      -0.03540704       0.36853112       0.11636704 </v>
   <v>       0.33396585       0.40074915      -0.18227472 </v>
   <v>      -0.33317291      -0.14398971       0.01789173 </v>
   <v>      -0.30817952       0.16304380       0.24344633 </v>
   <v>       0.00598280      -0.25369776      -0.45881810 </v>
   <v>      -0.18564635       0.13642343       0.43661072 </v>
   <v>      -0.03799588       0.18306993       0.14363428 </v>
   <v>      -0.36755462       0.42332907       0.26770583 </v>
   <v>      -0.20981440      -0.27271242      -0.14862890 </v>
   <v>       0.36266112      -0.50183847      -0.09599884 </v>
   <v>      -0.37890838      -0.89489961      -0.17219074 </v>
   <v>       0.17953475      -0.37984130       0.17833710 </v>
   <v>       0.67328007      -0.77100458      -0.15918449 </v>
   <v>       0.13979194      -0.10139652       0.41178272 </v>
   <v>      -0.18517593      -0.21644122      -0.17359339 </v>
   <v>      -0.44395731      -0.44258688       0.13941529 </v>
   <v>       0.24391704      -0.19257448      -0.25007341 </v>
   <v>       0.21728136       0.33717174       0.09490432 </v>
   <v>      -0.06945753       0.71317879       0.18804959 </v>
   <v>       0.03320167      -0.83902027      -0.67108284 </v>
   <v>       0.54993657       0.59077097      -0.11212440 </v>
   <v>      -0.01323321      -0.13767455       0.63242123 </v>
   <v>       0.00609006       0.01704316      -0.11968411 </v>
   <v>       0.37597465       0.01903115       0.26171254 </v>
   <v>      -0.18543709       0.06434411       0.14605542 </v>
   <v>       0.17813941       0.08687139      -0.28416080 </v>
   <v>       0.11103351       0.47840762       0.38247659 </v>
   <v>      -0.35691059       0.18805337      -0.76288689 </v>
  </varray>
  <varray name="stress" >
   <v>      10.13300874       0.47988621       1.25326509 </v>
   <v>       0.47988618      10.39213278       1.54524998 </v>
   <v>       1.25326504       1.54524995      15.49792970 </v>
  </varray>
  <energy>
   <i name="e_fr_energy">   -118.73717249 </i>
   <i name="e_wo_entrp">   -118.72164422 </i>
   <i name="e_0_energy">   -118.72940836 </i>
  </energy>
  <time name="totalsc">  747.96  752.96</time>
  <eigenvalues>
   <array>
    <dimension dim="1">band</dimension>
    <dimension dim="2">kpoint</dimension>
    <dimension dim="3">spin</dimension>
    <field>eigene</field>
    <field>occ</field>
    <set>
     <set comment="spin 1">
      <set comment="kpoint 1">
       <r>   -3.1589    1.0000 </r>
       <r>   -1.0539    1.0000 </r>
       <r>   -0.9902    1.0000 </r>
       <r>   -0.9580    1.0000 </r>
       <r>   -0.8978    1.0000 </r>
       <r>   -0.8824    1.0000 </r>
       <r>   -0.6767    1.0000 </r>
       <r>    1.0321    1.0000 </r>
       <r>    1.1390    1.0000 </r>
       <r>    1.1797    1.0000 </r>
       <r>    1.2049    1.0000 </r>
       <r>    1.2417    1.0000 </r>
       <r>    1.2788    1.0000 </r>
       <r>    1.3106    1.0000 </r>
       <r>    1.3708    1.0000 </r>
       <r>    1.4109    1.0000 </r>
       <r>    1.4580    1.0000 </r>
       <r>    1.4978    1.0000 </r>
       <r>    1.6521    1.0000 </r>
       <r>    3.3221    1.0000 </r>
       <r>    3.3929    1.0000 </r>
       <r>    3.4033    1.0000 </r>
       <r>    3.4207    1.0000 </r>
       <r>    3.6067    1.0000 </r>
       <r>    3.6322    1.0000 </r>
       <r>    3.6525    1.0000 </r>
       <r>    3.6663    1.0000 </r>
       <r>    5.0596    1.0000 </r>
       <r>    5.0709    1.0000 </r>
       <r>    5.1048    1.0000 </r>
       <r>    6.3335    1.0000 </r>
       <r>    6.3513    1.0000 </r>
       <r>    6.3761    1.0000 </r>
       <r>    6.9188    1.0000 </r>
       <r>    6.9503    1.0000 </r>
       <r>    6.9842    1.0000 </r>
       <r>    7.0723    1.0000 </r>
       <r>    7.0923    1.0000 </r>
       <r>    7.1146    1.0000 </r>
       <r>    7.1555    1.0000 </r>
       <r>    7.1904    1.0000 </r>
       <r>    7.2629    1.0000 </r>
       <r>    7.2742    1.0000 </r>
       <r>    7.3806    1.0000 </r>
       <r>    7.4679    1.0000 </r>
       <r>    7.9684    0.8928 </r>
       <r>    7.9901    0.7354 </r>
       <r>    8.1094    0.0030 </r>
       <r>    8.2249    0.0000 </r>
       <r>    8.3020    0.0000 </r>
       <r>    8.3565    0.0000 </r>
       <r>    8.9674    0.0000 </r>
       <r>    9.0006    0.0000 </r>
       <r>    9.0217    0.0000 </r>
       <r>    9.0373    0.0000 </r>
       <r>    9.0828    0.0000 </r>
       <r>    9.0963    0.0000 </r>
       <r>    9.1084    0.0000 </r>
       <r>    9.1273    0.0000 </r>
       <r>    9.1852    0.0000 </r>
       <r>    9.2109    0.0000 </r>
       <r>    9.2222    0.0000 </r>
       <r>    9.2282    0.0000 </r>
       <r>    9.2756    0.0000 </r>
       <r>    9.3014    0.0000 </r>
       <r>    9.3524    0.0000 </r>
       <r>    9.3811    0.0000 </r>
       <r>    9.4217    0.0000 </r>
       <r>    9.5639    0.0000 </r>
       <r>   10.5524    0.0000 </r>
       <r>   10.5883    0.0000 </r>
       <r>   10.6326    0.0000 </r>
      </set>
      <set comment="kpoint 2">
       <r>   -3.1311    1.0000 </r>
       <r>   -1.3979    1.0000 </r>
       <r>   -1.0079    1.0000 </r>
       <r>   -0.8854    1.0000 </r>
       <r>   -0.8605    1.0000 </r>
       <r>   -0.7940    1.0000 </r>
       <r>   -0.3545    1.0000 </r>
       <r>    0.6990    1.0000 </r>
       <r>    0.8436    1.0000 </r>
       <r>    0.8504    1.0000 </r>
       <r>    0.9012    1.0000 </r>
       <r>    1.2773    1.0000 </r>
       <r>    1.3384    1.0000 </r>
       <r>    1.3549    1.0000 </r>
       <r>    1.3937    1.0000 </r>
       <r>    1.7152    1.0000 </r>
       <r>    1.8513    1.0000 </r>
       <r>    1.8877    1.0000 </r>
       <r>    1.9763    1.0000 </r>
       <r>    2.9723    1.0000 </r>
       <r>    3.0405    1.0000 </r>
       <r>    3.0684    1.0000 </r>
       <r>    3.0990    1.0000 </r>
       <r>    3.9624    1.0000 </r>
       <r>    4.0269    1.0000 </r>
       <r>    4.0562    1.0000 </r>
       <r>    4.0830    1.0000 </r>
       <r>    4.5888    1.0000 </r>
       <r>    5.0884    1.0000 </r>
       <r>    5.1301    1.0000 </r>
       <r>    6.3430    1.0000 </r>
       <r>    6.3835    1.0000 </r>
       <r>    6.5046    1.0000 </r>
       <r>    6.5953    1.0000 </r>
       <r>    6.6446    1.0000 </r>
       <r>    6.7203    1.0000 </r>
       <r>    6.7652    1.0000 </r>
       <r>    6.8845    1.0000 </r>
       <r>    6.9391    1.0000 </r>
       <r>    7.0881    1.0000 </r>
       <r>    7.1558    1.0000 </r>
       <r>    7.2047    1.0000 </r>
       <r>    7.2679    1.0000 </r>
       <r>    7.6676    1.0000 </r>
       <r>    7.6829    1.0000 </r>
       <r>    7.9161    0.9967 </r>
       <r>    7.9709    0.8796 </r>
       <r>    8.3043    0.0000 </r>
       <r>    8.3912    0.0000 </r>
       <r>    8.4538    0.0000 </r>
       <r>    8.5225    0.0000 </r>
       <r>    8.6690    0.0000 </r>
       <r>    8.7089    0.0000 </r>
       <r>    8.7538    0.0000 </r>
       <r>    8.7779    0.0000 </r>
       <r>    8.8400    0.0000 </r>
       <r>    8.8805    0.0000 </r>
       <r>    8.9257    0.0000 </r>
       <r>    9.0278    0.0000 </r>
       <r>    9.2849    0.0000 </r>
       <r>    9.2982    0.0000 </r>
       <r>    9.3058    0.0000 </r>
       <r>    9.3722    0.0000 </r>
       <r>    9.4026    0.0000 </r>
       <r>    9.4300    0.0000 </r>
       <r>    9.6545    0.0000 </r>
       <r>    9.7537    0.0000 </r>
       <r>    9.7854    0.0000 </r>
       <r>    9.8450    0.0000 </r>
       <r>   10.2252    0.0000 </r>
       <r>   10.2662    0.0000 </r>
       <r>   10.3233    0.0000 </r>
      </set>
      <set comment="kpoint 3">
       <r>   -3.1310    1.0000 </r>
       <r>   -1.4016    1.0000 </r>
       <r>   -0.9887    1.0000 </r>
       <r>   -0.9223    1.0000 </r>
       <r>   -0.8632    1.0000 </r>
       <r>   -0.7606    1.0000 </r>
       <r>   -0.3642    1.0000 </r>
       <r>    0.7209    1.0000 </r>
       <r>    0.7863    1.0000 </r>
       <r>    0.8418    1.0000 </r>
       <r>    0.9523    1.0000 </r>
       <r>    1.2408    1.0000 </r>
       <r>    1.3180    1.0000 </r>
       <r>    1.3777    1.0000 </r>
       <r>    1.4325    1.0000 </r>
       <r>    1.7405    1.0000 </r>
       <r>    1.8012    1.0000 </r>
       <r>    1.8845    1.0000 </r>
       <r>    1.9922    1.0000 </r>
       <r>    2.9370    1.0000 </r>
       <r>    3.0284    1.0000 </r>
       <r>    3.0825    1.0000 </r>
       <r>    3.1485    1.0000 </r>
       <r>    3.9217    1.0000 </r>
       <r>    4.0043    1.0000 </r>
       <r>    4.0591    1.0000 </r>
       <r>    4.1263    1.0000 </r>
       <r>    4.6108    1.0000 </r>
       <r>    5.0876    1.0000 </r>
       <r>    5.0960    1.0000 </r>
       <r>    6.3566    1.0000 </r>
       <r>    6.3879    1.0000 </r>
       <r>    6.5524    1.0000 </r>
       <r>    6.6099    1.0000 </r>
       <r>    6.6660    1.0000 </r>
       <r>    6.6995    1.0000 </r>
       <r>    6.7341    1.0000 </r>
       <r>    6.8381    1.0000 </r>
       <r>    6.8863    1.0000 </r>
       <r>    7.0929    1.0000 </r>
       <r>    7.1718    1.0000 </r>
       <r>    7.2305    1.0000 </r>
       <r>    7.3025    1.0000 </r>
       <r>    7.6314    1.0000 </r>
       <r>    7.6778    1.0000 </r>
       <r>    7.9388    0.9812 </r>
       <r>    7.9719    0.8735 </r>
       <r>    8.3132    0.0000 </r>
       <r>    8.3708    0.0000 </r>
       <r>    8.4510    0.0000 </r>
       <r>    8.5367    0.0000 </r>
       <r>    8.6508    0.0000 </r>
       <r>    8.7201    0.0000 </r>
       <r>    8.7778    0.0000 </r>
       <r>    8.8117    0.0000 </r>
       <r>    8.8370    0.0000 </r>
       <r>    8.8689    0.0000 </r>
       <r>    8.9483    0.0000 </r>
       <r>    9.0190    0.0000 </r>
       <r>    9.2588    0.0000 </r>
       <r>    9.2902    0.0000 </r>
       <r>    9.3228    0.0000 </r>
       <r>    9.3668    0.0000 </r>
       <r>    9.3802    0.0000 </r>
       <r>    9.4266    0.0000 </r>
       <r>    9.6467    0.0000 </r>
       <r>    9.6938    0.0000 </r>
       <r>    9.7781    0.0000 </r>
       <r>    9.8725    0.0000 </r>
       <r>   10.2300    0.0000 </r>
       <r>   10.2865    0.0000 </r>
       <r>   10.3735    0.0000 </r>
      </set>
      <set comment="kpoint 4">
       <r>   -3.1311    1.0000 </r>
       <r>   -1.3963    1.0000 </r>
       <r>   -0.9727    1.0000 </r>
       <r>   -0.9600    1.0000 </r>
       <r>   -0.8664    1.0000 </r>
       <r>   -0.7434    1.0000 </r>
       <r>   -0.3603    1.0000 </r>
       <r>    0.7269    1.0000 </r>
       <r>    0.7664    1.0000 </r>
       <r>    0.8597    1.0000 </r>
       <r>    0.9437    1.0000 </r>
       <r>    1.2610    1.0000 </r>
       <r>    1.2981    1.0000 </r>
       <r>    1.4045    1.0000 </r>
       <r>    1.4161    1.0000 </r>
       <r>    1.7474    1.0000 </r>
       <r>    1.7801    1.0000 </r>
       <r>    1.8645    1.0000 </r>
       <r>    2.0217    1.0000 </r>
       <r>    2.9660    1.0000 </r>
       <r>    3.0016    1.0000 </r>
       <r>    3.0976    1.0000 </r>
       <r>    3.1204    1.0000 </r>
       <r>    3.9545    1.0000 </r>
       <r>    3.9841    1.0000 </r>
       <r>    4.0783    1.0000 </r>
       <r>    4.1043    1.0000 </r>
       <r>    4.5840    1.0000 </r>
       <r>    5.0952    1.0000 </r>
       <r>    5.1297    1.0000 </r>
       <r>    6.3475    1.0000 </r>
       <r>    6.3706    1.0000 </r>
       <r>    6.5176    1.0000 </r>
       <r>    6.5737    1.0000 </r>
       <r>    6.6650    1.0000 </r>
       <r>    6.6958    1.0000 </r>
       <r>    6.7616    1.0000 </r>
       <r>    6.8820    1.0000 </r>
       <r>    6.9298    1.0000 </r>
       <r>    7.1107    1.0000 </r>
       <r>    7.1438    1.0000 </r>
       <r>    7.1991    1.0000 </r>
       <r>    7.3150    1.0000 </r>
       <r>    7.6587    1.0000 </r>
       <r>    7.6934    1.0000 </r>
       <r>    7.9298    0.9902 </r>
       <r>    7.9726    0.8696 </r>
       <r>    8.2510    0.0000 </r>
       <r>    8.4171    0.0000 </r>
       <r>    8.4572    0.0000 </r>
       <r>    8.5336    0.0000 </r>
       <r>    8.6491    0.0000 </r>
       <r>    8.6990    0.0000 </r>
       <r>    8.7384    0.0000 </r>
       <r>    8.8101    0.0000 </r>
       <r>    8.8330    0.0000 </r>
       <r>    8.8705    0.0000 </r>
       <r>    8.9281    0.0000 </r>
       <r>    9.0312    0.0000 </r>
       <r>    9.2740    0.0000 </r>
       <r>    9.2932    0.0000 </r>
       <r>    9.3231    0.0000 </r>
       <r>    9.3541    0.0000 </r>
       <r>    9.3991    0.0000 </r>
       <r>    9.4574    0.0000 </r>
       <r>    9.6722    0.0000 </r>
       <r>    9.6975    0.0000 </r>
       <r>    9.7758    0.0000 </r>
       <r>    9.8992    0.0000 </r>
       <r>   10.1792    0.0000 </r>
       <r>   10.2999    0.0000 </r>
       <r>   10.3701    0.0000 </r>
      </set>
      <set comment="kpoint 5">
       <r>   -3.0480    1.0000 </r>
       <r>   -1.8008    1.0000 </r>
       <r>   -0.9262    1.0000 </r>
       <r>   -0.8051    1.0000 </r>
       <r>   -0.7797    1.0000 </r>
       <r>   -0.7041    1.0000 </r>
       <r>    0.1645    1.0000 </r>
       <r>    0.3119    1.0000 </r>
       <r>    0.4535    1.0000 </r>
       <r>    0.4709    1.0000 </r>
       <r>    0.5313    1.0000 </r>
       <r>    1.3545    1.0000 </r>
       <r>    1.4161    1.0000 </r>
       <r>    1.4401    1.0000 </r>
       <r>    1.4706    1.0000 </r>
       <r>    2.2543    1.0000 </r>
       <r>    2.3872    1.0000 </r>
       <r>    2.4164    1.0000 </r>
       <r>    2.4736    1.0000 </r>
       <r>    2.6069    1.0000 </r>
       <r>    2.6620    1.0000 </r>
       <r>    2.7058    1.0000 </r>
       <r>    2.7242    1.0000 </r>
       <r>    3.7988    1.0000 </r>
       <r>    4.5078    1.0000 </r>
       <r>    4.5753    1.0000 </r>
       <r>    4.6043    1.0000 </r>
       <r>    4.6318    1.0000 </r>
       <r>    5.1633    1.0000 </r>
       <r>    5.2069    1.0000 </r>
       <r>    5.7673    1.0000 </r>
       <r>    5.9130    1.0000 </r>
       <r>    5.9387    1.0000 </r>
       <r>    5.9888    1.0000 </r>
       <r>    6.3077    1.0000 </r>
       <r>    6.4001    1.0000 </r>
       <r>    6.4713    1.0000 </r>
       <r>    6.5061    1.0000 </r>
       <r>    7.1493    1.0000 </r>
       <r>    7.2263    1.0000 </r>
       <r>    7.2618    1.0000 </r>
       <r>    7.3373    1.0000 </r>
       <r>    7.6231    1.0000 </r>
       <r>    7.6628    1.0000 </r>
       <r>    7.8361    1.0000 </r>
       <r>    7.9581    0.9375 </r>
       <r>    8.0160    0.4587 </r>
       <r>    8.0568    0.1042 </r>
       <r>    8.0979    0.0078 </r>
       <r>    8.1645    0.0000 </r>
       <r>    8.2303    0.0000 </r>
       <r>    8.3390    0.0000 </r>
       <r>    8.4149    0.0000 </r>
       <r>    8.5017    0.0000 </r>
       <r>    8.5550    0.0000 </r>
       <r>    8.6008    0.0000 </r>
       <r>    8.6369    0.0000 </r>
       <r>    8.6990    0.0000 </r>
       <r>    8.7814    0.0000 </r>
       <r>    9.7376    0.0000 </r>
       <r>    9.7739    0.0000 </r>
       <r>    9.8316    0.0000 </r>
       <r>    9.8446    0.0000 </r>
       <r>    9.9019    0.0000 </r>
       <r>    9.9752    0.0000 </r>
       <r>   10.0467    0.0000 </r>
       <r>   10.1193    0.0000 </r>
       <r>   10.1775    0.0000 </r>
       <r>   10.1891    0.0000 </r>
       <r>   10.2171    0.0000 </r>
       <r>   10.3207    0.0000 </r>
       <r>   10.3428    0.0000 </r>
      </set>
      <set comment="kpoint 6">
       <r>   -3.0475    1.0000 </r>
       <r>   -1.8048    1.0000 </r>
       <r>   -0.9078    1.0000 </r>
       <r>   -0.8401    1.0000 </r>
[...]
       <r>    2.7126    1.0000 </r>
       <r>    2.8183    1.0000 </r>
       <r>    2.8758    1.0000 </r>
       <r>    2.9338    1.0000 </r>
       <r>    3.0349    1.0000 </r>
       <r>    3.0787    1.0000 </r>
       <r>    3.1060    1.0000 </r>
       <r>    3.2069    1.0000 </r>
       <r>    3.2464    1.0000 </r>
       <r>    3.2777    1.0000 </r>
       <r>    3.4090    1.0000 </r>
       <r>    3.4654    1.0000 </r>
       <r>    3.4941    1.0000 </r>
       <r>    3.5841    1.0000 </r>
       <r>    3.6146    1.0000 </r>
       <r>    3.7293    1.0000 </r>
       <r>    6.3536    1.0000 </r>
       <r>    6.3723    1.0000 </r>
       <r>    6.4701    1.0000 </r>
       <r>    6.6280    1.0000 </r>
       <r>    6.6833    1.0000 </r>
       <r>    6.7324    1.0000 </r>
       <r>    6.9893    1.0000 </r>
       <r>    7.0452    1.0000 </r>
       <r>    7.0867    1.0000 </r>
       <r>    7.1177    1.0000 </r>
       <r>    7.2041    1.0000 </r>
       <r>    7.2302    1.0000 </r>
       <r>    7.2972    1.0000 </r>
       <r>    7.3451    1.0000 </r>
       <r>    7.3910    1.0000 </r>
       <r>    7.4406    1.0000 </r>
       <r>    7.4834    1.0000 </r>
       <r>    7.4972    1.0000 </r>
       <r>    7.8109    1.0000 </r>
       <r>    7.8500    1.0000 </r>
       <r>    7.8865    0.9998 </r>
       <r>    8.0560    0.1085 </r>
       <r>    8.0835    0.0221 </r>
       <r>    8.2260    0.0000 </r>
       <r>   10.4020    0.0000 </r>
       <r>   10.7429    0.0000 </r>
       <r>   10.7733    0.0000 </r>
       <r>   10.8447    0.0000 </r>
       <r>   10.9393    0.0000 </r>
       <r>   10.9914    0.0000 </r>
       <r>   11.0178    0.0000 </r>
       <r>   11.0498    0.0000 </r>
       <r>   11.0656    0.0000 </r>
       <r>   11.0794    0.0000 </r>
       <r>   11.1598    0.0000 </r>
       <r>   11.1861    0.0000 </r>
       <r>   11.2047    0.0000 </r>
       <r>   11.3445    0.0000 </r>
       <r>   11.3637    0.0000 </r>
       <r>   11.4712    0.0000 </r>
      </set>
     </set>
    </set>
   </array>
  </eigenvalues>
  <separator name="orbital magnetization" >
   <v name="MAGDIPOLOUT">      0.00000000      0.00000000      0.00000000</v>
  </separator>
  <dos>
   <i name="efermi">      8.01233755 </i>
   <total>
    <array>
     <dimension dim="1">gridpoints</dimension>
     <dimension dim="2">spin</dimension>
     <field>energy</field>
     <field>total</field>
     <field>integrated</field>
     <set>
      <set comment="spin 1">
       <r>    -3.9048     0.0000     0.0000 </r>
       <r>    -3.8501     0.0000     0.0000 </r>
       <r>    -3.7954     0.0000     0.0000 </r>
       <r>    -3.7407     0.0000     0.0000 </r>
       <r>    -3.6860     0.0000     0.0000 </r>
       <r>    -3.6313     0.0000     0.0000 </r>
       <r>    -3.5766     0.0000     0.0000 </r>
       <r>    -3.5219     0.0000     0.0000 </r>
       <r>    -3.4672     0.0000     0.0000 </r>
       <r>    -3.4125     0.0000     0.0000 </r>
       <r>    -3.3578     0.0000     0.0000 </r>
       <r>    -3.3031     0.0000     0.0000 </r>
       <r>    -3.2484     0.0004     0.0000 </r>
       <r>    -3.1937     0.0226     0.0013 </r>
       <r>    -3.1390     0.2470     0.0148 </r>
       <r>    -3.0843     0.7295     0.0547 </r>
       <r>    -3.0296     1.1638     0.1183 </r>
       <r>    -2.9749     1.5316     0.2021 </r>
       <r>    -2.9202     1.5197     0.2853 </r>
       <r>    -2.8655     2.1345     0.4020 </r>
       <r>    -2.8108     2.0813     0.5159 </r>
       <r>    -2.7561     2.3175     0.6426 </r>
       <r>    -2.7014     2.1584     0.7607 </r>
       <r>    -2.6467     2.9950     0.9245 </r>
       <r>    -2.5920     3.0771     1.0929 </r>
       <r>    -2.5373     2.6302     1.2367 </r>
       <r>    -2.4826     2.2310     1.3588 </r>
       <r>    -2.4279     3.5111     1.5508 </r>
       <r>    -2.3732     3.5913     1.7473 </r>
       <r>    -2.3185     3.5825     1.9433 </r>
       <r>    -2.2638     2.8783     2.1007 </r>
       <r>    -2.2091     3.5749     2.2963 </r>
       <r>    -2.1543     3.9240     2.5109 </r>
       <r>    -2.0996     3.7081     2.7138 </r>
       <r>    -2.0449     4.2376     2.9456 </r>
       <r>    -1.9902     4.3804     3.1852 </r>
       <r>    -1.9355     4.3049     3.4207 </r>
       <r>    -1.8808     3.2492     3.5984 </r>
       <r>    -1.8261     3.3468     3.7815 </r>
       <r>    -1.7714     3.8902     3.9943 </r>
       <r>    -1.7167     5.6379     4.3027 </r>
       <r>    -1.6620     5.4701     4.6019 </r>
       <r>    -1.6073     4.4854     4.8473 </r>
       <r>    -1.5526     3.8350     5.0570 </r>
       <r>    -1.4979     4.5293     5.3048 </r>
       <r>    -1.4432     4.2523     5.5374 </r>
       <r>    -1.3885     4.8254     5.8014 </r>
       <r>    -1.3338     6.2005     6.1406 </r>
       <r>    -1.2791     5.9676     6.4670 </r>
       <r>    -1.2244     4.0073     6.6862 </r>
       <r>    -1.1697     4.1021     6.9106 </r>
       <r>    -1.1150     6.0127     7.2395 </r>
       <r>    -1.0603     6.5557     7.5981 </r>
       <r>    -1.0056     5.6417     7.9067 </r>
       <r>    -0.9509     4.4938     8.1525 </r>
       <r>    -0.8962     4.6276     8.4057 </r>
       <r>    -0.8415     5.5338     8.7084 </r>
       <r>    -0.7868     6.3803     9.0574 </r>
       <r>    -0.7321     6.7593     9.4271 </r>
       <r>    -0.6774     7.3473     9.8290 </r>
       <r>    -0.6227     5.5227    10.1312 </r>
       <r>    -0.5680     5.3867    10.4258 </r>
       <r>    -0.5133     4.4019    10.6666 </r>
       <r>    -0.4586     5.4819    10.9665 </r>
       <r>    -0.4039     7.8861    11.3979 </r>
       <r>    -0.3492     7.2054    11.7920 </r>
       <r>    -0.2945     6.5401    12.1498 </r>
       <r>    -0.2398     5.8777    12.4713 </r>
       <r>    -0.1851     6.2514    12.8133 </r>
       <r>    -0.1304     6.2878    13.1572 </r>
       <r>    -0.0757     6.2055    13.4967 </r>
       <r>    -0.0210     7.2191    13.8916 </r>
       <r>     0.0337     7.3350    14.2928 </r>
       <r>     0.0884     6.2864    14.6367 </r>
       <r>     0.1431     6.3547    14.9843 </r>
       <r>     0.1978     6.5770    15.3441 </r>
       <r>     0.2525     7.0816    15.7315 </r>
       <r>     0.3072     6.8811    16.1079 </r>
       <r>     0.3619     6.9978    16.4907 </r>
       <r>     0.4166     6.9389    16.8702 </r>
       <r>     0.4713     7.7691    17.2952 </r>
       <r>     0.5260     7.8789    17.7262 </r>
       <r>     0.5807     7.5137    18.1372 </r>
       <r>     0.6355     6.9177    18.5156 </r>
       <r>     0.6902     7.3301    18.9166 </r>
       <r>     0.7449     6.7647    19.2866 </r>
       <r>     0.7996     5.5485    19.5902 </r>
       <r>     0.8543     6.9066    19.9680 </r>
       <r>     0.9090     8.6990    20.4438 </r>
       <r>     0.9637     8.9096    20.9312 </r>
       <r>     1.0184     8.6609    21.4049 </r>
       <r>     1.0731     9.4293    21.9207 </r>
       <r>     1.1278     7.4011    22.3256 </r>
       <r>     1.1825     6.0909    22.6588 </r>
       <r>     1.2372     7.5648    23.0726 </r>
       <r>     1.2919     8.0803    23.5146 </r>
       <r>     1.3466     8.2110    23.9638 </r>
       <r>     1.4013     8.3885    24.4226 </r>
       <r>     1.4560     6.7845    24.7938 </r>
       <r>     1.5107     7.7698    25.2188 </r>
       <r>     1.5654    10.0411    25.7681 </r>
       <r>     1.6201     9.4479    26.2849 </r>
       <r>     1.6748     7.7388    26.7082 </r>
       <r>     1.7295     6.5017    27.0639 </r>
       <r>     1.7842     8.6175    27.5352 </r>
       <r>     1.8389    10.3526    28.1016 </r>
       <r>     1.8936     9.5702    28.6251 </r>
       <r>     1.9483     9.7759    29.1598 </r>
       <r>     2.0030     8.7722    29.6397 </r>
       <r>     2.0577     6.8039    30.0119 </r>
       <r>     2.1124     6.1947    30.3507 </r>
       <r>     2.1671     8.0390    30.7905 </r>
       <r>     2.2218    10.2123    31.3491 </r>
       <r>     2.2765    10.3030    31.9127 </r>
       <r>     2.3312     9.5470    32.4350 </r>
       <r>     2.3859     7.7210    32.8573 </r>
       <r>     2.4406     8.1951    33.3056 </r>
       <r>     2.4953    11.8130    33.9518 </r>
       <r>     2.5500    10.6966    34.5369 </r>
       <r>     2.6047     8.8432    35.0207 </r>
       <r>     2.6594     9.4687    35.5386 </r>
       <r>     2.7141     9.2575    36.0450 </r>
       <r>     2.7688     7.9353    36.4791 </r>
       <r>     2.8235     8.6112    36.9501 </r>
       <r>     2.8782     9.7650    37.4843 </r>
       <r>     2.9329     8.7021    37.9603 </r>
       <r>     2.9876     7.8999    38.3925 </r>
       <r>     3.0423     9.5175    38.9131 </r>
       <r>     3.0970    11.7874    39.5579 </r>
       <r>     3.1517    11.6687    40.1962 </r>
       <r>     3.2064    10.9747    40.7965 </r>
       <r>     3.2611    11.0273    41.3997 </r>
       <r>     3.3158    10.2826    41.9622 </r>
       <r>     3.3706     8.1426    42.4076 </r>
       <r>     3.4253     8.1066    42.8511 </r>
       <r>     3.4800     9.2847    43.3590 </r>
       <r>     3.5347    11.3334    43.9789 </r>
       <r>     3.5894    11.2691    44.5954 </r>
       <r>     3.6441    10.0354    45.1443 </r>
       <r>     3.6988    10.7392    45.7318 </r>
       <r>     3.7535     9.7402    46.2646 </r>
       <r>     3.8082     8.5246    46.7309 </r>
       <r>     3.8629     9.1740    47.2327 </r>
       <r>     3.9176    11.3391    47.8530 </r>
       <r>     3.9723    12.2108    48.5210 </r>
       <r>     4.0270    10.6674    49.1045 </r>
       <r>     4.0817    11.4735    49.7321 </r>
       <r>     4.1364    10.4222    50.3022 </r>
       <r>     4.1911    10.4054    50.8714 </r>
       <r>     4.2458    10.3278    51.4364 </r>
       <r>     4.3005    11.9069    52.0877 </r>
       <r>     4.3552    13.2464    52.8123 </r>
       <r>     4.4099     9.7834    53.3475 </r>
       <r>     4.4646     9.3748    53.8603 </r>
       <r>     4.5193     9.2663    54.3672 </r>
       <r>     4.5740     9.4923    54.8864 </r>
       <r>     4.6287    10.7353    55.4737 </r>
       <r>     4.6834    11.5253    56.1041 </r>
       <r>     4.7381    13.2115    56.8268 </r>
       <r>     4.7928    13.6860    57.5755 </r>
       <r>     4.8475    12.0067    58.2323 </r>
       <r>     4.9022    13.0497    58.9461 </r>
       <r>     4.9569    11.8271    59.5931 </r>
       <r>     5.0116    10.4466    60.1645 </r>
       <r>     5.0663    10.1765    60.7212 </r>
       <r>     5.1210    11.9717    61.3761 </r>
       <r>     5.1757    12.5487    62.0625 </r>
       <r>     5.2304    12.4968    62.7461 </r>
       <r>     5.2851    12.3704    63.4228 </r>
       <r>     5.3398    12.2771    64.0944 </r>
       <r>     5.3945    12.7910    64.7941 </r>
       <r>     5.4492    11.2625    65.4102 </r>
       <r>     5.5039    10.5237    65.9858 </r>
       <r>     5.5586    12.5417    66.6719 </r>
       <r>     5.6133    13.6780    67.4201 </r>
       <r>     5.6680    12.0651    68.0801 </r>
       <r>     5.7227    11.7446    68.7225 </r>
       <r>     5.7774    11.1797    69.3341 </r>
       <r>     5.8321     9.6051    69.8595 </r>
       <r>     5.8868    12.2095    70.5274 </r>
       <r>     5.9415    12.7681    71.2258 </r>
       <r>     5.9962     9.6542    71.7539 </r>
       <r>     6.0509     9.7451    72.2870 </r>
       <r>     6.1056    11.2591    72.9029 </r>
       <r>     6.1604    12.8122    73.6038 </r>
       <r>     6.2151    11.9246    74.2561 </r>
       <r>     6.2698    10.6551    74.8389 </r>
       <r>     6.3245    11.6141    75.4742 </r>
       <r>     6.3792    12.3596    76.1503 </r>
       <r>     6.4339    12.9884    76.8608 </r>
       <r>     6.4886    11.9089    77.5123 </r>
       <r>     6.5433     9.6120    78.0381 </r>
       <r>     6.5980    10.1079    78.5910 </r>
       <r>     6.6527    11.0510    79.1955 </r>
       <r>     6.7074    11.3613    79.8170 </r>
       <r>     6.7621    11.4592    80.4438 </r>
       <r>     6.8168    11.8172    81.0902 </r>
       <r>     6.8715    13.5611    81.8321 </r>
       <r>     6.9262    13.5636    82.5740 </r>
       <r>     6.9809    13.7143    83.3242 </r>
       <r>     7.0356    13.9217    84.0858 </r>
       <r>     7.0903    12.0977    84.7475 </r>
       <r>     7.1450    11.7952    85.3928 </r>
       <r>     7.1997    12.7599    86.0907 </r>
       <r>     7.2544    11.3459    86.7114 </r>
       <r>     7.3091    11.4972    87.3403 </r>
       <r>     7.3638    14.1506    88.1144 </r>
       <r>     7.4185    12.4207    88.7938 </r>
       <r>     7.4732    10.1886    89.3512 </r>
       <r>     7.5279    12.1500    90.0158 </r>
       <r>     7.5826    12.7651    90.7141 </r>
       <r>     7.6373    12.4495    91.3951 </r>
       <r>     7.6920    13.5117    92.1342 </r>
       <r>     7.7467    12.2671    92.8052 </r>
       <r>     7.8014     9.8226    93.3425 </r>
       <r>     7.8561    10.4286    93.9130 </r>
       <r>     7.9108    13.1464    94.6321 </r>
       <r>     7.9655    13.8075    95.3874 </r>
       <r>     8.0202    12.9771    96.0973 </r>
       <r>     8.0749    12.7314    96.7937 </r>
       <r>     8.1296    14.7449    97.6003 </r>
       <r>     8.1843    13.9681    98.3644 </r>
       <r>     8.2390    12.5738    99.0522 </r>
       <r>     8.2937    14.7521    99.8592 </r>
       <r>     8.3484    15.4162   100.7025 </r>
       <r>     8.4031    14.8749   101.5162 </r>
       <r>     8.4578    13.5819   102.2591 </r>
       <r>     8.5125    12.8363   102.9613 </r>
       <r>     8.5672    12.6864   103.6553 </r>
       <r>     8.6219    10.4095   104.2247 </r>
       <r>     8.6766    11.3830   104.8473 </r>
       <r>     8.7313    12.6736   105.5406 </r>
       <r>     8.7860    12.2077   106.2084 </r>
       <r>     8.8407    12.8404   106.9108 </r>
       <r>     8.8955    12.8600   107.6143 </r>
       <r>     8.9502    13.9578   108.3778 </r>
       <r>     9.0049    15.7650   109.2402 </r>
       <r>     9.0596    15.8089   110.1049 </r>
       <r>     9.1143    15.6280   110.9598 </r>
       <r>     9.1690    15.9695   111.8334 </r>
       <r>     9.2237    14.5594   112.6298 </r>
       <r>     9.2784    13.6227   113.3750 </r>
       <r>     9.3331    12.5829   114.0633 </r>
       <r>     9.3878    11.9724   114.7182 </r>
       <r>     9.4425    11.7246   115.3596 </r>
       <r>     9.4972    12.3029   116.0326 </r>
       <r>     9.5519    12.4230   116.7121 </r>
       <r>     9.6066    13.3158   117.4405 </r>
       <r>     9.6613    13.1100   118.1577 </r>
       <r>     9.7160    13.8564   118.9157 </r>
       <r>     9.7707    15.8737   119.7840 </r>
       <r>     9.8254    17.2551   120.7279 </r>
       <r>     9.8801    15.7083   121.5871 </r>
       <r>     9.9348    13.7348   122.3385 </r>
       <r>     9.9895    14.5387   123.1338 </r>
       <r>    10.0442    15.5693   123.9854 </r>
       <r>    10.0989    13.9179   124.7468 </r>
       <r>    10.1536    11.4166   125.3713 </r>
       <r>    10.2083    13.4090   126.1048 </r>
       <r>    10.2630    14.5875   126.9027 </r>
       <r>    10.3177    13.5368   127.6432 </r>
       <r>    10.3724    12.7912   128.3429 </r>
       <r>    10.4271    15.0650   129.1670 </r>
       <r>    10.4818    17.5866   130.1290 </r>
       <r>    10.5365    15.4844   130.9761 </r>
       <r>    10.5912    15.4566   131.8216 </r>
       <r>    10.6459    15.1657   132.6512 </r>
       <r>    10.7006    14.4623   133.4423 </r>
       <r>    10.7553    15.0393   134.2650 </r>
       <r>    10.8100    13.2476   134.9896 </r>
       <r>    10.8647    12.7154   135.6852 </r>
       <r>    10.9194    13.8698   136.4439 </r>
       <r>    10.9741    13.0893   137.1599 </r>
       <r>    11.0288    13.2408   137.8842 </r>
       <r>    11.0835    13.0321   138.5971 </r>
       <r>    11.1382    12.3889   139.2748 </r>
       <r>    11.1929    11.1491   139.8847 </r>
       <r>    11.2476    11.0609   140.4897 </r>
       <r>    11.3023    11.8440   141.1376 </r>
       <r>    11.3570    10.9524   141.7367 </r>
       <r>    11.4117    11.3235   142.3562 </r>
       <r>    11.4664     9.1932   142.8590 </r>
       <r>    11.5211     5.2904   143.1484 </r>
       <r>    11.5758     4.7801   143.4099 </r>
       <r>    11.6305     4.9573   143.6811 </r>
       <r>    11.6853     3.3939   143.8667 </r>
       <r>    11.7400     1.7479   143.9624 </r>
       <r>    11.7947     0.6109   143.9958 </r>
       <r>    11.8494     0.0755   143.9999 </r>
       <r>    11.9041     0.0017   144.0000 </r>
       <r>    11.9588     0.0000   144.0000 </r>
       <r>    12.0135     0.0000   144.0000 </r>
       <r>    12.0682     0.0000   144.0000 </r>
       <r>    12.1229     0.0000   144.0000 </r>
       <r>    12.1776     0.0000   144.0000 </r>
       <r>    12.2323     0.0000   144.0000 </r>
       <r>    12.2870     0.0000   144.0000 </r>
       <r>    12.3417     0.0000   144.0000 </r>
       <r>    12.3964     0.0000   144.0000 </r>
       <r>    12.4511     0.0000   144.0000 </r>
       <r>    12.5058     0.0000   144.0000 </r>
      </set>
     </set>
    </array>
   </total>
  </dos>
 </calculation>
 <structure name="finalpos" >
  <crystal>
   <varray name="basis" >
    <v>       8.07809510       0.00000000       0.00000000 </v>
    <v>       0.00000000       8.07809510       0.00000000 </v>
    <v>       0.00000000       0.00000000       8.07809510 </v>
   </varray>
   <i name="volume">    527.14110776 </i>
   <varray name="rec_basis" >
    <v>       0.12379156       0.00000000       0.00000000 </v>
    <v>       0.00000000       0.12379156       0.00000000 </v>
    <v>       0.00000000       0.00000000       0.12379156 </v>
   </varray>
  </crystal>
  <varray name="positions" >
   <v>       0.00321794       0.98646870       0.00047835 </v>
   <v>       0.00195900       0.25342317       0.23720333 </v>
   <v>       0.24609499       0.98602867       0.26312720 </v>
   <v>       0.23517318       0.24056381       0.99424327 </v>
   <v>       0.99573899       0.99283755       0.49368845 </v>
   <v>       0.99226755       0.22873388       0.74901759 </v>
   <v>       0.25584188       0.99964080       0.74390031 </v>
   <v>       0.25666254       0.24640045       0.48783961 </v>
   <v>       0.99973109       0.50987426       0.00104730 </v>
   <v>       0.00241771       0.74270487       0.23670583 </v>
   <v>       0.25247947       0.49471612       0.24345669 </v>
   <v>       0.26448429       0.74013442       0.99308053 </v>
   <v>       0.01675119       0.50378179       0.50740839 </v>
   <v>       0.99606177       0.76243383       0.75646678 </v>
   <v>       0.25675453       0.52167903       0.74565241 </v>
   <v>       0.24780268       0.75726807       0.49289053 </v>
   <v>       0.48119034       0.02712696       0.00258830 </v>
   <v>       0.50103369       0.25128778       0.24435890 </v>
   <v>       0.75511426       0.00905269       0.25522435 </v>
   <v>       0.76348511       0.25765254       0.99574552 </v>
   <v>       0.50315488       0.99955984       0.49922726 </v>
   <v>       0.49040508       0.24282368       0.73713820 </v>
   <v>       0.74192508       0.98372251       0.74780470 </v>
   <v>       0.75230794       0.27347998       0.51026959 </v>
   <v>       0.48407784       0.46909087       0.99502422 </v>
   <v>       0.50544401       0.75811847       0.22830399 </v>
   <v>       0.75079351       0.50413653       0.25133741 </v>
   <v>       0.73178148       0.74513249       0.98946247 </v>
   <v>       0.50171854       0.50879051       0.48725623 </v>
   <v>       0.49695722       0.74736247       0.75076994 </v>
   <v>       0.74382338       0.48687629       0.75005667 </v>
   <v>       0.76396491       0.73646909       0.51862765 </v>
  </varray>
 </structure>
</modeling>
