<?xml version="1.0" encoding="ISO-8859-1"?>
<modeling>
 <generator>
  <i name="program" type="string">vasp </i>
  <i name="version" type="string">6.2.0  </i>
  <i name="subversion" type="string">18Jan21 (build Mar 25 2021 14:28:09) complex                          parallel </i>
  <i name="platform" type="string">LinuxGNU </i>
  <i name="date" type="string">2021 12 20 </i>
  <i name="time" type="string">09:54:13 </i>
 </generator>
 <incar>
  <i type="string" name="SYSTEM">benzene</i>
  <i type="int" name="ISTART">     0</i>
  <i type="string" name="PREC">Accurate</i>
  <i type="string" name="ALGO">Normal</i>
  <i type="int" name="NELM">   200</i>
  <i type="int" name="IBRION">    -1</i>
  <i name="EDIFF">      0.00000100</i>
  <i type="int" name="NSW">     0</i>
  <i name="ENCUT">    600.00000000</i>
  <i type="logical" name="LREAL"> F  </i>
  <i type="int" name="ISMEAR">     0</i>
  <i name="SIGMA">      0.05000000</i>
  <i type="logical" name="LWAVE"> F  </i>
  <i type="logical" name="LCHARG"> T  </i>
  <i type="string" name="GGA">PE</i>
 </incar>
 <primitive_cell>
  <structure name="primitive_cell" >
   <crystal>
    <varray name="basis" >
     <v>      10.58354422       0.00000000       0.00000000 </v>
     <v>       0.00000000      10.58354422       0.00000000 </v>
     <v>       0.00000000       0.00000000      10.58354422 </v>
    </varray>
    <i name="volume">   1185.47769178 </i>
    <varray name="rec_basis" >
     <v>       0.09448631       0.00000000       0.00000000 </v>
     <v>       0.00000000       0.09448631       0.00000000 </v>
     <v>       0.00000000       0.00000000       0.09448631 </v>
    </varray>
   </crystal>
   <varray name="positions" >
    <v>       0.50053100       0.63638180       0.49629215 </v>
    <v>       0.38828165       0.56751905       0.50424035 </v>
    <v>       0.38901800       0.43770310       0.50445115 </v>
    <v>       0.49954910       0.36539170       0.49831870 </v>
    <v>       0.61047610       0.43361695       0.49818050 </v>
    <v>       0.61153690       0.57007565       0.50108925 </v>
    <v>       0.50127190       0.74005730       0.48084770 </v>
    <v>       0.30159880       0.61227900       0.51484190 </v>
    <v>       0.29732480       0.37958155       0.49117960 </v>
    <v>       0.50215420       0.25909010       0.49930655 </v>
    <v>       0.69625435       0.38086535       0.49858490 </v>
    <v>       0.70200300       0.61743855       0.51266710 </v>
   </varray>
  </structure>
  <varray name="primitive_index" >
   <v type="int" >        1 </v>
   <v type="int" >        2 </v>
   <v type="int" >        3 </v>
   <v type="int" >        4 </v>
   <v type="int" >        5 </v>
   <v type="int" >        6 </v>
   <v type="int" >        7 </v>
   <v type="int" >        8 </v>
   <v type="int" >        9 </v>
   <v type="int" >       10 </v>
   <v type="int" >       11 </v>
   <v type="int" >       12 </v>
  </varray>
 </primitive_cell>
 <kpoints>
  <generation param="Gamma">
   <v type="int" name="divisions">       1        1        1 </v>
   <v name="usershift">      0.00000000       0.00000000       0.00000000 </v>
   <v name="genvec1">      1.00000000       0.00000000       0.00000000 </v>
   <v name="genvec2">      0.00000000       1.00000000       0.00000000 </v>
   <v name="genvec3">      0.00000000       0.00000000       1.00000000 </v>
   <v name="shift">      0.00000000       0.00000000       0.00000000 </v>
  </generation>
  <varray name="kpointlist" >
   <v>       0.00000000       0.00000000       0.00000000 </v>
  </varray>
  <varray name="weights" >
   <v>       1.00000000 </v>
  </varray>
 </kpoints>
 <parameters>
  <separator name="general" >
   <i type="string" name="SYSTEM">benzene</i>
   <i type="logical" name="LCOMPAT"> F  </i>
  </separator>
  <separator name="electronic" >
   <i type="string" name="PREC">accura</i>
   <i name="ENMAX">    600.00000000</i>
   <i name="ENAUG">    644.87300000</i>
   <i name="EDIFF">      0.00000100</i>
   <i type="int" name="IALGO">    38</i>
   <i type="int" name="IWAVPR">    10</i>
   <i type="int" name="NBANDS">    24</i>
   <i type="int" name="NBANDSLOW">    -1</i>
   <i type="int" name="NBANDSHIGH">    -1</i>
   <i name="NELECT">     30.00000000</i>
   <i type="int" name="TURBO">     0</i>
   <i type="int" name="IRESTART">     0</i>
   <i type="int" name="NREBOOT">     0</i>
   <i type="int" name="NMIN">     0</i>
   <i name="EREF">      0.00000000</i>
   <separator name="electronic smearing" >
    <i type="int" name="ISMEAR">     0</i>
    <i name="SIGMA">      0.05000000</i>
    <i name="KSPACING">      0.50000000</i>
    <i type="logical" name="KGAMMA"> T  </i>
    <i type="logical" name="KBLOWUP"> T  </i>
   </separator>
   <separator name="electronic projectors" >
    <i type="logical" name="LREAL"> F  </i>
    <v name="ROPT">      0.00000000      0.00000000</v>
    <i type="int" name="LMAXPAW">  -100</i>
    <i type="int" name="LMAXMIX">     2</i>
    <i type="logical" name="NLSPLINE"> F  </i>
   </separator>
   <separator name="electronic startup" >
    <i type="int" name="ISTART">     0</i>
    <i type="int" name="ICHARG">     2</i>
    <i type="int" name="INIWAV">     1</i>
   </separator>
   <separator name="electronic spin" >
    <i type="int" name="ISPIN">     1</i>
    <i type="logical" name="LNONCOLLINEAR"> F  </i>
    <v name="MAGMOM">      1.00000000      1.00000000      1.00000000      1.00000000      1.00000000      1.00000000      1.00000000      1.00000000      1.00000000      1.00000000      1.00000000      1.00000000</v>
    <i name="NUPDOWN">     -1.00000000</i>
    <i type="logical" name="LSORBIT"> F  </i>
    <v name="SAXIS">      0.00000000      0.00000000      1.00000000</v>
    <i type="logical" name="LSPIRAL"> F  </i>
    <v name="QSPIRAL">      0.00000000      0.00000000      0.00000000</v>
    <i type="logical" name="LZEROZ"> F  </i>
   </separator>
   <separator name="electronic exchange-correlation" >
    <i type="logical" name="LASPH"> F  </i>
    <i type="logical" name="LMETAGGA"> F  </i>
   </separator>
   <separator name="electronic convergence" >
    <i type="int" name="NELM">   200</i>
    <i type="int" name="NELMDL">    -5</i>
    <i type="int" name="NELMIN">     2</i>
    <i name="ENINI">    600.00000000</i>
    <separator name="electronic convergence detail" >
     <i type="logical" name="LDIAG"> T  </i>
     <i type="logical" name="LSUBROT"> F  </i>
     <i name="WEIMIN">      0.00000000</i>
     <i name="EBREAK">      0.00000001</i>
     <i name="DEPER">      0.30000000</i>
     <i type="int" name="NRMM">     4</i>
     <i name="TIME">      0.40000000</i>
    </separator>
   </separator>
   <separator name="electronic mixer" >
    <i name="AMIX">      0.40000000</i>
    <i name="BMIX">      1.00000000</i>
    <i name="AMIN">      0.10000000</i>
    <i name="AMIX_MAG">      1.60000000</i>
    <i name="BMIX_MAG">      1.00000000</i>
    <separator name="electronic mixer details" >
     <i type="int" name="IMIX">     4</i>
     <i type="logical" name="MIXFIRST"> F  </i>
     <i type="int" name="MAXMIX">   -45</i>
     <i name="WC">    100.00000000</i>
     <i type="int" name="INIMIX">     1</i>
     <i type="int" name="MIXPRE">     1</i>
     <i type="int" name="MREMOVE">     5</i>
    </separator>
   </separator>
   <separator name="electronic dipolcorrection" >
    <i type="logical" name="LDIPOL"> F  </i>
    <i type="logical" name="LMONO"> F  </i>
    <i type="int" name="IDIPOL">     0</i>
    <i name="EPSILON">      1.00000000</i>
    <v name="DIPOL">   -100.00000000   -100.00000000   -100.00000000</v>
    <i name="EFIELD">      0.00000000</i>
   </separator>
  </separator>
  <separator name="grids" >
   <i type="int" name="NGX">    90</i>
   <i type="int" name="NGY">    90</i>
   <i type="int" name="NGZ">    90</i>
   <i type="int" name="NGXF">   180</i>
   <i type="int" name="NGYF">   180</i>
   <i type="int" name="NGZF">   180</i>
   <i type="logical" name="ADDGRID"> F  </i>
  </separator>
  <separator name="ionic" >
   <i type="int" name="NSW">     0</i>
   <i type="int" name="IBRION">    -1</i>
   <i type="int" name="MDALGO">     0</i>
   <i type="int" name="ISIF">     2</i>
   <i name="PSTRESS">      0.00000000</i>
   <i name="EDIFFG">      0.00001000</i>
   <i type="int" name="NFREE">     0</i>
   <i name="POTIM">      0.50000000</i>
   <i name="SMASS">     -3.00000000</i>
   <i name="SCALEE">      1.00000000</i>
  </separator>
  <separator name="ionic md" >
   <i name="TEBEG">      0.00010000</i>
   <i name="TEEND">      0.00010000</i>
   <i type="int" name="NBLOCK">     1</i>
   <i type="int" name="KBLOCK">     1</i>
   <i type="int" name="NPACO">   256</i>
   <i name="APACO">     16.00000000</i>
  </separator>
  <separator name="symmetry" >
   <i type="int" name="ISYM">     2</i>
   <i name="SYMPREC">      0.00001000</i>
  </separator>
  <separator name="dos" >
   <i type="int" name="LORBIT">     0</i>
   <v name="RWIGS">     -1.00000000     -1.00000000</v>
   <i type="int" name="NEDOS">   301</i>
   <i name="EMIN">     10.00000000</i>
   <i name="EMAX">    -10.00000000</i>
   <i name="EFERMI">      0.00000000</i>
  </separator>
  <separator name="writing" >
   <i type="int" name="NWRITE">     2</i>
   <i type="logical" name="LWAVE"> F  </i>
   <i type="logical" name="LDOWNSAMPLE"> F  </i>
   <i type="logical" name="LCHARG"> T  </i>
   <i type="logical" name="LPARD"> F  </i>
   <i type="logical" name="LVTOT"> F  </i>
   <i type="logical" name="LVHAR"> F  </i>
   <i type="logical" name="LELF"> F  </i>
   <i type="logical" name="LOPTICS"> F  </i>
   <v name="STM">      0.00000000      0.00000000      0.00000000      0.00000000      0.00000000      0.00000000      0.00000000</v>
  </separator>
  <separator name="performance" >
   <i type="int" name="NPAR">     4</i>
   <i type="int" name="NSIM">     4</i>
   <i type="int" name="NBLK">    -1</i>
   <i type="logical" name="LPLANE"> T  </i>
   <i type="logical" name="LSCALAPACK"> T  </i>
   <i type="logical" name="LSCAAWARE"> F  </i>
   <i type="logical" name="LSCALU"> F  </i>
   <i type="logical" name="LASYNC"> F  </i>
   <i type="logical" name="LORBITALREAL"> F  </i>
  </separator>
  <separator name="miscellaneous" >
   <i type="int" name="IDIOT">     3</i>
   <i type="int" name="PHON_NSTRUCT">    -1</i>
   <i type="logical" name="LMUSIC"> F  </i>
   <v name="POMASS">     12.01100000      1.00000000</v>
   <v name="DARWINR">      0.00000000      0.00000000</v>
   <v name="DARWINV">      1.00000000      1.00000000</v>
   <i type="logical" name="LCORR"> T  </i>
  </separator>
  <i type="logical" name="GGA_COMPAT"> T  </i>
  <i type="logical" name="LBERRY"> F  </i>
  <i type="int" name="ICORELEVEL">     0</i>
  <i type="logical" name="LDAU"> F  </i>
  <i type="int" name="I_CONSTRAINED_M">     0</i>
  <separator name="electronic exchange-correlation" >
   <i type="string" name="GGA">PE</i>
   <i type="int" name="VOSKOWN">     0</i>
   <i type="logical" name="LHFCALC"> F  </i>
   <i type="string" name="PRECFOCK"></i>
   <i type="logical" name="LSYMGRAD"> F  </i>
   <i type="logical" name="LHFONE"> F  </i>
   <i type="logical" name="LRHFCALC"> F  </i>
   <i type="logical" name="LTHOMAS"> F  </i>
   <i type="logical" name="LMODELHF"> F  </i>
   <i type="logical" name="LFOCKACE"> F  </i>
   <i name="ENCUT4O">     -1.00000000</i>
   <i type="int" name="EXXOEP">     0</i>
   <i type="int" name="FOURORBIT">     0</i>
   <i name="AEXX">      0.00000000</i>
   <i name="HFALPHA">      0.00000000</i>
   <i name="MCALPHA">      0.00000000</i>
   <i name="ALDAX">      1.00000000</i>
   <i name="AGGAX">      1.00000000</i>
   <i name="ALDAC">      1.00000000</i>
   <i name="AGGAC">      1.00000000</i>
   <i type="int" name="NKREDX">     1</i>
   <i type="int" name="NKREDY">     1</i>
   <i type="int" name="NKREDZ">     1</i>
   <i type="logical" name="SHIFTRED"> F  </i>
   <i type="logical" name="ODDONLY"> F  </i>
   <i type="logical" name="EVENONLY"> F  </i>
   <i type="int" name="LMAXFOCK">     0</i>
   <i type="int" name="NMAXFOCKAE">     0</i>
   <i type="logical" name="LFOCKAEDFT"> F  </i>
   <i name="HFSCREEN">      0.00000000</i>
   <i name="HFSCREENC">      0.00000000</i>
   <i type="int" name="NBANDSGWLOW">     0</i>
  </separator>
  <separator name="vdW DFT" >
   <i type="logical" name="LUSE_VDW"> F  </i>
   <i name="Zab_VDW">     -0.84910000</i>
   <i name="PARAM1">      0.12340000</i>
   <i name="PARAM2">      1.00000000</i>
   <i name="PARAM3">      0.00000000</i>
  </separator>
  <separator name="model GW" >
   <i type="int" name="MODEL_GW">     0</i>
   <i name="MODEL_EPS0">     59.27388459</i>
   <i name="MODEL_ALPHA">      1.00000000</i>
  </separator>
  <separator name="linear response parameters" >
   <i type="logical" name="LEPSILON"> F  </i>
   <i type="logical" name="LRPA"> F  </i>
   <i type="logical" name="LNABLA"> F  </i>
   <i type="logical" name="LVEL"> F  </i>
   <i type="int" name="KINTER">     0</i>
   <i name="CSHIFT">      0.10000000</i>
   <i name="OMEGAMAX">     -1.00000000</i>
   <i name="DEG_THRESHOLD">      0.00200000</i>
   <i name="RTIME">     -0.10000000</i>
   <i name="WPLASMAI">      0.00000000</i>
   <v name="DFIELD">      0.00000000      0.00000000      0.00000000</v>
   <v name="WPLASMA">      0.00000000      0.00000000      0.00000000      0.00000000      0.00000000      0.00000000      0.00000000      0.00000000      0.00000000</v>
  </separator>
  <separator name="orbital magnetization" >
   <i type="logical" name="NUCIND"> F  </i>
   <v name="MAGPOS">      0.00000000      0.00000000      0.00000000</v>
   <i type="logical" name="LNICSALL"> T  </i>
   <i type="logical" name="ORBITALMAG"> F  </i>
   <i type="logical" name="LMAGBLOCH"> F  </i>
   <i type="logical" name="LCHIMAG"> F  </i>
   <i type="logical" name="LGAUGE"> T  </i>
   <i type="int" name="MAGATOM">     0</i>
   <v name="MAGDIPOL">      0.00000000      0.00000000      0.00000000</v>
   <v name="AVECCONST">      0.00000000      0.00000000      0.00000000</v>
  </separator>
  <separator name="response functions" >
   <i type="logical" name="LFINITE_TEMPERATURE"> F  </i>
   <i type="logical" name="LADDER"> F  </i>
   <i type="logical" name="LRPAFORCE"> F  </i>
   <i type="logical" name="LFXC"> F  </i>
   <i type="logical" name="LHARTREE"> T  </i>
   <i type="int" name="IBSE">     0</i>
   <v type="int" name="KPOINT">    -1     0     0     0</v>
   <i type="logical" name="LTCTC"> F  </i>
   <i type="logical" name="LTCTE"> F  </i>
   <i type="logical" name="LTETE"> F  </i>
   <i type="logical" name="LTRIPLET"> F  </i>
   <i type="logical" name="LFXCEPS"> F  </i>
   <i type="logical" name="LFXHEG"> F  </i>
   <i type="int" name="NATURALO">     2</i>
   <i type="logical" name="LHOLEGF"> F  </i>
   <i type="logical" name="L2ORDER"> F  </i>
   <i type="logical" name="LDMP1"> F  </i>
   <i type="logical" name="LMP2LT"> F  </i>
   <i type="logical" name="LSMP2LT"> F  </i>
   <i type="logical" name="LGWLF"> F  </i>
   <i name="ENCUTGW">     -2.00000000</i>
   <i name="ENCUTGWSOFT">     -2.00000000</i>
   <i name="ENCUTLF">     -1.00000000</i>
   <i type="logical" name="LESF_SPLINES"> F  </i>
   <i type="int" name="LMAXMP2">    -1</i>
   <i name="SCISSOR">      0.00000000</i>
   <i type="int" name="NOMEGA">     0</i>
   <i type="int" name="NOMEGAR">     0</i>
   <i type="int" name="NBANDSGW">    -1</i>
   <i type="int" name="NBANDSO">    -1</i>
   <i type="int" name="NBANDSV">    -1</i>
   <i type="int" name="NELM">   200</i>
   <i type="int" name="NELMHF">     1</i>
   <i type="int" name="DIM">     3</i>
   <i type="int" name="IESPILON">     4</i>
   <i type="int" name="ANTIRES">     0</i>
   <i name="OMEGAMAX">    -30.00000000</i>
   <i name="OMEGAMIN">    -30.00000000</i>
   <i name="OMEGATL">   -200.00000000</i>
   <i type="int" name="OMEGAGRID">     0</i>
   <i name="CSHIFT">     -0.10000000</i>
   <i type="logical" name="LSELFENERGY"> F  </i>
   <i type="logical" name="LSPECTRAL"> F  </i>
   <i type="logical" name="LSPECTRALGW"> F  </i>
   <i type="logical" name="LSINGLES"> F  </i>
   <i type="logical" name="LFERMIGW"> F  </i>
   <i type="logical" name="ODDONLYGW"> F  </i>
   <i type="logical" name="EVENONLYGW"> F  </i>
   <i type="int" name="NKREDLFX">     1</i>
   <i type="int" name="NKREDLFY">     1</i>
   <i type="int" name="NKREDLFZ">     1</i>
   <i type="int" name="MAXMEM">  2800</i>
   <i type="int" name="TELESCOPE">     0</i>
   <i type="int" name="NTAUPAR">    -1</i>
   <i type="int" name="NOMEGAPAR">    -1</i>
   <i name="DAMP_NEWTON">      0.80000001</i>
   <i name="LAMBDA">      1.00000000</i>
  </separator>
  <separator name="External order field" >
   <i name="OFIELD_KAPPA">      0.00000000</i>
   <v name="OFIELD_K">      0.00000000      0.00000000      0.00000000</v>
   <i name="OFIELD_Q6_NEAR">      0.00000000</i>
   <i name="OFIELD_Q6_FAR">      0.00000000</i>
   <i name="OFIELD_A">      0.00000000</i>
  </separator>
 </parameters>
 <atominfo>
  <atoms>      12 </atoms>
  <types>       2 </types>
  <array name="atoms" >
   <dimension dim="1">ion</dimension>
   <field type="string">element</field>
   <field type="int">atomtype</field>
   <set>
    <rc><c>C </c><c>   1</c></rc>
    <rc><c>C </c><c>   1</c></rc>
    <rc><c>C </c><c>   1</c></rc>
    <rc><c>C </c><c>   1</c></rc>
    <rc><c>C </c><c>   1</c></rc>
    <rc><c>C </c><c>   1</c></rc>
    <rc><c>H </c><c>   2</c></rc>
    <rc><c>H </c><c>   2</c></rc>
    <rc><c>H </c><c>   2</c></rc>
    <rc><c>H </c><c>   2</c></rc>
    <rc><c>H </c><c>   2</c></rc>
    <rc><c>H </c><c>   2</c></rc>
   </set>
  </array>
  <array name="atomtypes" >
   <dimension dim="1">type</dimension>
   <field type="int">atomspertype</field>
   <field type="string">element</field>
   <field>mass</field>
   <field>valence</field>
   <field type="string">pseudopotential</field>
   <set>
    <rc><c>   6</c><c>C </c><c>     12.01100000</c><c>      4.00000000</c><c>  PAW_PBE C 08Apr2002                   </c></rc>
    <rc><c>   6</c><c>H </c><c>      1.00000000</c><c>      1.00000000</c><c>  PAW_PBE H 15Jun2001                   </c></rc>
   </set>
  </array>
 </atominfo>
 <structure name="initialpos" >
  <crystal>
   <varray name="basis" >
    <v>      10.58354422       0.00000000       0.00000000 </v>
    <v>       0.00000000      10.58354422       0.00000000 </v>
    <v>       0.00000000       0.00000000      10.58354422 </v>
   </varray>
   <i name="volume">   1185.47769178 </i>
   <varray name="rec_basis" >
    <v>       0.09448631       0.00000000       0.00000000 </v>
    <v>       0.00000000       0.09448631       0.00000000 </v>
    <v>       0.00000000       0.00000000       0.09448631 </v>
   </varray>
  </crystal>
  <varray name="positions" >
   <v>       0.50053100       0.63638180       0.49629215 </v>
   <v>       0.38828165       0.56751905       0.50424035 </v>
   <v>       0.38901800       0.43770310       0.50445115 </v>
   <v>       0.49954910       0.36539170       0.49831870 </v>
   <v>       0.61047610       0.43361695       0.49818050 </v>
   <v>       0.61153690       0.57007565       0.50108925 </v>
   <v>       0.50127190       0.74005730       0.48084770 </v>
   <v>       0.30159880       0.61227900       0.51484190 </v>
   <v>       0.29732480       0.37958155       0.49117960 </v>
   <v>       0.50215420       0.25909010       0.49930655 </v>
   <v>       0.69625435       0.38086535       0.49858490 </v>
   <v>       0.70200300       0.61743855       0.51266710 </v>
  </varray>
 </structure>
 <calculation>
  <scstep>
   <time name="dav">    0.21    0.21</time>
   <time name="total">    0.47    0.47</time>
   <energy>
    <i name="alphaZ">      3.48814018 </i>
    <i name="ewald">   1134.48684739 </i>
    <i name="hartreedc">  -1768.44905157 </i>
    <i name="XCdc">     91.34158308 </i>
    <i name="pawpsdc">    663.93644290 </i>
    <i name="pawaedc">   -667.40614445 </i>
    <i name="eentropy">     -0.00000000 </i>
    <i name="bandstr">   -199.69289680 </i>
    <i name="atom">    957.82965714 </i>
    <i name="e_fr_energy">    215.53457786 </i>
    <i name="e_wo_entrp">    215.53457786 </i>
    <i name="e_0_energy">    215.53457786 </i>
   </energy>
  </scstep>
  <scstep>
   <time name="dav">    0.25    0.25</time>
   <time name="total">    0.25    0.25</time>
   <energy>
    <i name="e_fr_energy">     -2.23050168 </i>
    <i name="e_wo_entrp">     -2.23050168 </i>
    <i name="e_0_energy">     -2.23050168 </i>
   </energy>
  </scstep>
  <scstep>
   <time name="dav">    0.21    0.21</time>
   <time name="total">    0.21    0.21</time>
   <energy>
    <i name="e_fr_energy">    -78.12982691 </i>
    <i name="e_wo_entrp">    -78.12982691 </i>
    <i name="e_0_energy">    -78.12982691 </i>
   </energy>
  </scstep>
  <scstep>
   <time name="dav">    0.18    0.19</time>
   <time name="total">    0.18    0.19</time>
   <energy>
    <i name="e_fr_energy">    -83.78743947 </i>
    <i name="e_wo_entrp">    -83.78743947 </i>
    <i name="e_0_energy">    -83.78743947 </i>
   </energy>
  </scstep>
  <scstep>
   <time name="dav">    0.25    0.25</time>
   <time name="total">    0.29    0.29</time>
   <energy>
    <i name="e_fr_energy">    -83.91007819 </i>
    <i name="e_wo_entrp">    -83.91007819 </i>
    <i name="e_0_energy">    -83.91007819 </i>
   </energy>
  </scstep>
  <scstep>
   <time name="dav">    0.22    0.22</time>
   <time name="total">    0.51    0.51</time>
   <energy>
    <i name="e_fr_energy">    -77.53968734 </i>
    <i name="e_wo_entrp">    -77.53968734 </i>
    <i name="e_0_energy">    -77.53968734 </i>
   </energy>
  </scstep>
  <scstep>
   <time name="dav">    0.25    0.25</time>
   <time name="total">    0.54    0.55</time>
   <energy>
    <i name="e_fr_energy">    -75.76073899 </i>
    <i name="e_wo_entrp">    -75.76073899 </i>
    <i name="e_0_energy">    -75.76073899 </i>
   </energy>
  </scstep>
  <scstep>
   <time name="dav">    0.21    0.21</time>
   <time name="total">    0.50    0.50</time>
   <energy>
    <i name="e_fr_energy">    -75.58733701 </i>
    <i name="e_wo_entrp">    -75.58733701 </i>
    <i name="e_0_energy">    -75.58733701 </i>
   </energy>
  </scstep>
  <scstep>
   <time name="dav">    0.23    0.23</time>
   <time name="total">    0.52    0.52</time>
   <energy>
    <i name="e_fr_energy">    -75.55975899 </i>
    <i name="e_wo_entrp">    -75.55975899 </i>
    <i name="e_0_energy">    -75.55975899 </i>
   </energy>
  </scstep>
  <scstep>
   <time name="dav">    0.18    0.19</time>
   <time name="total">    0.48    0.48</time>
   <energy>
    <i name="e_fr_energy">    -75.55499088 </i>
    <i name="e_wo_entrp">    -75.55499088 </i>
    <i name="e_0_energy">    -75.55499088 </i>
   </energy>
  </scstep>
  <scstep>
   <time name="dav">    0.20    0.20</time>
   <time name="total">    0.48    0.49</time>
   <energy>
    <i name="e_fr_energy">    -75.54691016 </i>
    <i name="e_wo_entrp">    -75.54691016 </i>
    <i name="e_0_energy">    -75.54691016 </i>
   </energy>
  </scstep>
  <scstep>
   <time name="dav">    0.20    0.21</time>
   <time name="total">    0.49    0.49</time>
   <energy>
    <i name="e_fr_energy">    -75.55115646 </i>
    <i name="e_wo_entrp">    -75.55115646 </i>
    <i name="e_0_energy">    -75.55115646 </i>
   </energy>
  </scstep>
  <scstep>
   <time name="dav">    0.20    0.21</time>
   <time name="total">    0.48    0.48</time>
   <energy>
    <i name="e_fr_energy">    -75.56131768 </i>
    <i name="e_wo_entrp">    -75.56131768 </i>
    <i name="e_0_energy">    -75.56131768 </i>
   </energy>
  </scstep>
  <scstep>
   <time name="dav">    0.20    0.21</time>
   <time name="total">    0.48    0.48</time>
   <energy>
    <i name="e_fr_energy">    -75.56827300 </i>
    <i name="e_wo_entrp">    -75.56827300 </i>
    <i name="e_0_energy">    -75.56827300 </i>
   </energy>
  </scstep>
  <scstep>
   <time name="dav">    0.21    0.21</time>
   <time name="total">    0.48    0.48</time>
   <energy>
    <i name="e_fr_energy">    -75.57158230 </i>
    <i name="e_wo_entrp">    -75.57158230 </i>
    <i name="e_0_energy">    -75.57158230 </i>
   </energy>
  </scstep>
  <scstep>
   <time name="dav">    0.20    0.20</time>
   <time name="total">    0.48    0.48</time>
   <energy>
    <i name="e_fr_energy">    -75.57262521 </i>
    <i name="e_wo_entrp">    -75.57262521 </i>
    <i name="e_0_energy">    -75.57262521 </i>
   </energy>
  </scstep>
  <scstep>
   <time name="dav">    0.20    0.20</time>
   <time name="total">    0.48    0.48</time>
   <energy>
    <i name="e_fr_energy">    -75.57310929 </i>
    <i name="e_wo_entrp">    -75.57310929 </i>
    <i name="e_0_energy">    -75.57310929 </i>
   </energy>
  </scstep>
  <scstep>
   <time name="dav">    0.19    0.19</time>
   <time name="total">    0.47    0.48</time>
   <energy>
    <i name="e_fr_energy">    -75.57320946 </i>
    <i name="e_wo_entrp">    -75.57320946 </i>
    <i name="e_0_energy">    -75.57320946 </i>
   </energy>
  </scstep>
  <scstep>
   <time name="dav">    0.18    0.19</time>
   <time name="total">    0.47    0.47</time>
   <energy>
    <i name="e_fr_energy">    -75.57325600 </i>
    <i name="e_wo_entrp">    -75.57325600 </i>
    <i name="e_0_energy">    -75.57325600 </i>
   </energy>
  </scstep>
  <scstep>
   <time name="dav">    0.18    0.18</time>
   <time name="total">    0.47    0.47</time>
   <energy>
    <i name="e_fr_energy">    -75.57326738 </i>
    <i name="e_wo_entrp">    -75.57326738 </i>
    <i name="e_0_energy">    -75.57326738 </i>
   </energy>
  </scstep>
  <scstep>
   <time name="dav">    0.18    0.19</time>
   <time name="total">    0.47    0.47</time>
   <energy>
    <i name="e_fr_energy">    -75.57327128 </i>
    <i name="e_wo_entrp">    -75.57327128 </i>
    <i name="e_0_energy">    -75.57327128 </i>
   </energy>
  </scstep>
  <scstep>
   <time name="dav">    0.19    0.19</time>
   <time name="total">    0.48    0.48</time>
   <energy>
    <i name="e_fr_energy">    -75.57327291 </i>
    <i name="e_wo_entrp">    -75.57327291 </i>
    <i name="e_0_energy">    -75.57327291 </i>
   </energy>
  </scstep>
  <scstep>
   <time name="dav">    0.19    0.19</time>
   <time name="total">    0.44    0.45</time>
   <energy>
    <i name="alphaZ">      3.48814018 </i>
    <i name="ewald">   1134.48684739 </i>
    <i name="hartreedc">  -1915.79880519 </i>
    <i name="XCdc">     98.23514510 </i>
    <i name="pawpsdc">   2522.48832396 </i>
    <i name="pawaedc">  -2526.75279304 </i>
    <i name="eentropy">     -0.00000000 </i>
    <i name="bandstr">   -349.54978870 </i>
    <i name="atom">    957.82965714 </i>
    <i name="e_fr_energy">    -75.57327316 </i>
    <i name="e_wo_entrp">    -75.57327316 </i>
    <i name="e_0_energy">    -75.57327316 </i>
   </energy>
  </scstep>
  <structure>
   <crystal>
    <varray name="basis" >
     <v>      10.58354422       0.00000000       0.00000000 </v>
     <v>       0.00000000      10.58354422       0.00000000 </v>
     <v>       0.00000000       0.00000000      10.58354422 </v>
    </varray>
    <i name="volume">   1185.47769178 </i>
    <varray name="rec_basis" >
     <v>       0.09448631       0.00000000       0.00000000 </v>
     <v>       0.00000000       0.09448631       0.00000000 </v>
     <v>       0.00000000       0.00000000       0.09448631 </v>
    </varray>
   </crystal>
   <varray name="positions" >
    <v>       0.50053100       0.63638180       0.49629215 </v>
    <v>       0.38828165       0.56751905       0.50424035 </v>
    <v>       0.38901800       0.43770310       0.50445115 </v>
    <v>       0.49954910       0.36539170       0.49831870 </v>
    <v>       0.61047610       0.43361695       0.49818050 </v>
    <v>       0.61153690       0.57007565       0.50108925 </v>
    <v>       0.50127190       0.74005730       0.48084770 </v>
    <v>       0.30159880       0.61227900       0.51484190 </v>
    <v>       0.29732480       0.37958155       0.49117960 </v>
    <v>       0.50215420       0.25909010       0.49930655 </v>
    <v>       0.69625435       0.38086535       0.49858490 </v>
    <v>       0.70200300       0.61743855       0.51266710 </v>
   </varray>
  </structure>
  <varray name="forces" >
   <v>      -0.37328454       0.69808334      -0.02925525 </v>
   <v>       0.98945656      -0.29327703      -0.18025457 </v>
   <v>      -1.95461042      -2.62960346      -0.74447404 </v>
   <v>       0.01121828      -0.11633241       0.10807171 </v>
   <v>       0.17765973       1.45648047       0.36473737 </v>
   <v>       0.99107863      -1.98285003      -0.06896706 </v>
   <v>      -0.11345734      -0.51450879       0.48461314 </v>
   <v>      -1.76708666       1.09312832      -0.14262993 </v>
   <v>       1.13540507       1.25049616       0.67184383 </v>
   <v>      -0.24318157       1.10384627      -0.14941175 </v>
   <v>       1.01760839      -0.16401621       0.04071140 </v>
   <v>       0.12919387       0.09855338      -0.35498483 </v>
  </varray>
  <varray name="stress" >
   <v>       8.05718696      -3.08703039      -0.51487074 </v>
   <v>      -3.08703039      -5.54203810      -0.06241718 </v>
   <v>      -0.51487073      -0.06241718      -0.55839157 </v>
  </varray>
  <energy>
   <i name="e_fr_energy">    -75.57327316 </i>
   <i name="e_wo_entrp">    -75.57327316 </i>
   <i name="e_0_energy">    -75.57327316 </i>
  </energy>
  <time name="totalsc">   15.28   15.49</time>
  <eigenvalues>
   <array>
    <dimension dim="1">band</dimension>
    <dimension dim="2">kpoint</dimension>
    <dimension dim="3">spin</dimension>
    <field>eigene</field>
    <field>occ</field>
    <set>
     <set comment="spin 1">
      <set comment="kpoint 1">
       <r>  -20.8536    1.0000 </r>
       <r>  -18.1806    1.0000 </r>
       <r>  -17.8759    1.0000 </r>
       <r>  -14.4624    1.0000 </r>
       <r>  -14.2775    1.0000 </r>
       <r>  -12.4363    1.0000 </r>
       <r>  -10.7251    1.0000 </r>
       <r>  -10.4914    1.0000 </r>
       <r>   -9.9723    1.0000 </r>
       <r>   -9.5326    1.0000 </r>
       <r>   -8.6850    1.0000 </r>
       <r>   -7.9074    1.0000 </r>
       <r>   -7.6030    1.0000 </r>
       <r>   -6.0154    1.0000 </r>
       <r>   -5.7565    1.0000 </r>
       <r>   -0.8610    0.0000 </r>
       <r>   -0.8368    0.0000 </r>
       <r>   -0.4518    0.0000 </r>
       <r>    0.7142    0.0000 </r>
       <r>    0.8059    0.0000 </r>
       <r>    0.8737    0.0000 </r>
       <r>    0.8938    0.0000 </r>
       <r>    0.9782    0.0000 </r>
       <r>    1.4436    0.0000 </r>
      </set>
     </set>
    </set>
   </array>
  </eigenvalues>
  <separator name="orbital magnetization" >
   <v name="MAGDIPOLOUT">      0.00000000      0.00000000      0.00000000</v>
  </separator>
  <dos>
   <i name="efermi">     -5.52520374 </i>
   <total>
    <array>
     <dimension dim="1">gridpoints</dimension>
     <dimension dim="2">spin</dimension>
     <field>energy</field>
     <field>total</field>
     <field>integrated</field>
     <set>
      <set comment="spin 1">
       <r>   -21.9684     0.0000     0.0000 </r>
       <r>   -21.8867     0.0000     0.0000 </r>
       <r>   -21.8049     0.0000     0.0000 </r>
       <r>   -21.7232     0.0000     0.0000 </r>
       <r>   -21.6414     0.0000     0.0000 </r>
       <r>   -21.5597     0.0000     0.0000 </r>
       <r>   -21.4779     0.0000     0.0000 </r>
       <r>   -21.3961     0.0000     0.0000 </r>
       <r>   -21.3144     0.0000     0.0000 </r>
       <r>   -21.2326     0.0000     0.0000 </r>
       <r>   -21.1509     0.0000     0.0000 </r>
       <r>   -21.0691     0.0000     0.0000 </r>
       <r>   -20.9874     0.0019     0.0002 </r>
       <r>   -20.9056     1.7245     0.1411 </r>
       <r>   -20.8238    17.8389     1.5996 </r>
       <r>   -20.7421     4.8779     1.9984 </r>
       <r>   -20.6603     0.0197     2.0000 </r>
       <r>   -20.5786     0.0000     2.0000 </r>
       <r>   -20.4968     0.0000     2.0000 </r>
       <r>   -20.4151     0.0000     2.0000 </r>
       <r>   -20.3333     0.0000     2.0000 </r>
       <r>   -20.2516     0.0000     2.0000 </r>
       <r>   -20.1698     0.0000     2.0000 </r>
       <r>   -20.0880     0.0000     2.0000 </r>
       <r>   -20.0063     0.0000     2.0000 </r>
       <r>   -19.9245     0.0000     2.0000 </r>
       <r>   -19.8428     0.0000     2.0000 </r>
       <r>   -19.7610     0.0000     2.0000 </r>
       <r>   -19.6793     0.0000     2.0000 </r>
       <r>   -19.5975     0.0000     2.0000 </r>
       <r>   -19.5157     0.0000     2.0000 </r>
       <r>   -19.4340     0.0000     2.0000 </r>
       <r>   -19.3522     0.0000     2.0000 </r>
       <r>   -19.2705     0.0000     2.0000 </r>
       <r>   -19.1887     0.0000     2.0000 </r>
       <r>   -19.1070     0.0000     2.0000 </r>
       <r>   -19.0252     0.0000     2.0000 </r>
       <r>   -18.9434     0.0000     2.0000 </r>
       <r>   -18.8617     0.0000     2.0000 </r>
       <r>   -18.7799     0.0000     2.0000 </r>
       <r>   -18.6982     0.0000     2.0000 </r>
       <r>   -18.6164     0.0000     2.0000 </r>
       <r>   -18.5347     0.0000     2.0000 </r>
       <r>   -18.4529     0.0000     2.0000 </r>
       <r>   -18.3712     0.0000     2.0000 </r>
       <r>   -18.2894     0.0257     2.0021 </r>
       <r>   -18.2076     5.4179     2.4450 </r>
       <r>   -18.1259    17.5339     3.8786 </r>
       <r>   -18.0441     1.4842     3.9999 </r>
       <r>   -17.9624     0.1776     4.0144 </r>
       <r>   -17.8806    10.7469     4.8930 </r>
       <r>   -17.7989    13.1801     5.9706 </r>
       <r>   -17.7171     0.3596     6.0000 </r>
       <r>   -17.6353     0.0001     6.0000 </r>
       <r>   -17.5536     0.0000     6.0000 </r>
       <r>   -17.4718     0.0000     6.0000 </r>
       <r>   -17.3901     0.0000     6.0000 </r>
       <r>   -17.3083     0.0000     6.0000 </r>
       <r>   -17.2266     0.0000     6.0000 </r>
       <r>   -17.1448     0.0000     6.0000 </r>
       <r>   -17.0631     0.0000     6.0000 </r>
       <r>   -16.9813     0.0000     6.0000 </r>
       <r>   -16.8995     0.0000     6.0000 </r>
       <r>   -16.8178     0.0000     6.0000 </r>
       <r>   -16.7360     0.0000     6.0000 </r>
       <r>   -16.6543     0.0000     6.0000 </r>
       <r>   -16.5725     0.0000     6.0000 </r>
       <r>   -16.4908     0.0000     6.0000 </r>
       <r>   -16.4090     0.0000     6.0000 </r>
       <r>   -16.3272     0.0000     6.0000 </r>
       <r>   -16.2455     0.0000     6.0000 </r>
       <r>   -16.1637     0.0000     6.0000 </r>
       <r>   -16.0820     0.0000     6.0000 </r>
       <r>   -16.0002     0.0000     6.0000 </r>
       <r>   -15.9185     0.0000     6.0000 </r>
       <r>   -15.8367     0.0000     6.0000 </r>
       <r>   -15.7550     0.0000     6.0000 </r>
       <r>   -15.6732     0.0000     6.0000 </r>
       <r>   -15.5914     0.0000     6.0000 </r>
       <r>   -15.5097     0.0000     6.0000 </r>
       <r>   -15.4279     0.0000     6.0000 </r>
       <r>   -15.3462     0.0000     6.0000 </r>
       <r>   -15.2644     0.0000     6.0000 </r>
       <r>   -15.1827     0.0000     6.0000 </r>
       <r>   -15.1009     0.0000     6.0000 </r>
       <r>   -15.0191     0.0000     6.0000 </r>
       <r>   -14.9374     0.0000     6.0000 </r>
       <r>   -14.8556     0.0000     6.0000 </r>
       <r>   -14.7739     0.0000     6.0000 </r>
       <r>   -14.6921     0.0000     6.0000 </r>
       <r>   -14.6104     0.0003     6.0000 </r>
       <r>   -14.5286     0.7470     6.0611 </r>
       <r>   -14.4469    15.6405     7.3398 </r>
       <r>   -14.3651     8.1640     8.0073 </r>
       <r>   -14.2833    10.5284     8.8680 </r>
       <r>   -14.2016    13.4561     9.9681 </r>
       <r>   -14.1198     0.3895    10.0000 </r>
       <r>   -14.0381     0.0001    10.0000 </r>
       <r>   -13.9563     0.0000    10.0000 </r>
       <r>   -13.8746     0.0000    10.0000 </r>
       <r>   -13.7928     0.0000    10.0000 </r>
       <r>   -13.7110     0.0000    10.0000 </r>
       <r>   -13.6293     0.0000    10.0000 </r>
       <r>   -13.5475     0.0000    10.0000 </r>
       <r>   -13.4658     0.0000    10.0000 </r>
       <r>   -13.3840     0.0000    10.0000 </r>
       <r>   -13.3023     0.0000    10.0000 </r>
       <r>   -13.2205     0.0000    10.0000 </r>
       <r>   -13.1388     0.0000    10.0000 </r>
       <r>   -13.0570     0.0000    10.0000 </r>
       <r>   -12.9752     0.0000    10.0000 </r>
       <r>   -12.8935     0.0000    10.0000 </r>
       <r>   -12.8117     0.0000    10.0000 </r>
       <r>   -12.7300     0.0000    10.0000 </r>
       <r>   -12.6482     0.0000    10.0000 </r>
       <r>   -12.5665     0.0029    10.0002 </r>
       <r>   -12.4847     2.0934    10.1714 </r>
       <r>   -12.4029    18.1488    11.6552 </r>
       <r>   -12.3212     4.2042    11.9989 </r>
       <r>   -12.2394     0.0138    12.0000 </r>
       <r>   -12.1577     0.0000    12.0000 </r>
       <r>   -12.0759     0.0000    12.0000 </r>
       <r>   -11.9942     0.0000    12.0000 </r>
       <r>   -11.9124     0.0000    12.0000 </r>
       <r>   -11.8307     0.0000    12.0000 </r>
       <r>   -11.7489     0.0000    12.0000 </r>
       <r>   -11.6671     0.0000    12.0000 </r>
       <r>   -11.5854     0.0000    12.0000 </r>
       <r>   -11.5036     0.0000    12.0000 </r>
       <r>   -11.4219     0.0000    12.0000 </r>
       <r>   -11.3401     0.0000    12.0000 </r>
       <r>   -11.2584     0.0000    12.0000 </r>
       <r>   -11.1766     0.0000    12.0000 </r>
       <r>   -11.0948     0.0000    12.0000 </r>
       <r>   -11.0131     0.0000    12.0000 </r>
       <r>   -10.9313     0.0000    12.0000 </r>
       <r>   -10.8496     0.0052    12.0004 </r>
       <r>   -10.7678     2.7659    12.2266 </r>
       <r>   -10.6861    18.3897    13.7300 </r>
       <r>   -10.6043     3.3115    14.0008 </r>
       <r>   -10.5226     4.6186    14.3784 </r>
       <r>   -10.4408    17.9723    15.8477 </r>
       <r>   -10.3590     1.8604    15.9998 </r>
       <r>   -10.2773     0.0022    16.0000 </r>
       <r>   -10.1955     0.0000    16.0000 </r>
       <r>   -10.1138     0.0008    16.0001 </r>
       <r>   -10.0320     1.1124    16.0910 </r>
       <r>    -9.9503    16.8214    17.4663 </r>
       <r>    -9.8685     6.4876    17.9967 </r>
       <r>    -9.7867     0.0408    18.0000 </r>
       <r>    -9.7050     0.0000    18.0000 </r>
       <r>    -9.6232     0.1263    18.0103 </r>
       <r>    -9.5415     9.6686    18.8008 </r>
       <r>    -9.4597    14.1862    19.9606 </r>
       <r>    -9.3780     0.4816    20.0000 </r>
       <r>    -9.2962     0.0002    20.0000 </r>
       <r>    -9.2145     0.0000    20.0000 </r>
       <r>    -9.1327     0.0000    20.0000 </r>
       <r>    -9.0509     0.0000    20.0000 </r>
       <r>    -8.9692     0.0000    20.0000 </r>
       <r>    -8.8874     0.0000    20.0000 </r>
       <r>    -8.8057     0.0079    20.0006 </r>
       <r>    -8.7239     3.3124    20.2715 </r>
       <r>    -8.6422    18.3876    21.7748 </r>
       <r>    -8.5604     2.7499    21.9996 </r>
       <r>    -8.4786     0.0052    22.0000 </r>
       <r>    -8.3969     0.0000    22.0000 </r>
       <r>    -8.3151     0.0000    22.0000 </r>
       <r>    -8.2334     0.0000    22.0000 </r>
       <r>    -8.1516     0.0000    22.0000 </r>
       <r>    -8.0699     0.0001    22.0000 </r>
       <r>    -7.9881     0.2734    22.0224 </r>
       <r>    -7.9064    12.2332    23.0225 </r>
       <r>    -7.8246    11.7208    23.9807 </r>
       <r>    -7.7428     0.2364    24.0001 </r>
       <r>    -7.6611     1.2270    24.1004 </r>
       <r>    -7.5793    17.0801    25.4968 </r>
       <r>    -7.4976     6.1199    25.9971 </r>
       <r>    -7.4158     0.0350    26.0000 </r>
       <r>    -7.3341     0.0000    26.0000 </r>
       <r>    -7.2523     0.0000    26.0000 </r>
       <r>    -7.1705     0.0000    26.0000 </r>
       <r>    -7.0888     0.0000    26.0000 </r>
       <r>    -7.0070     0.0000    26.0000 </r>
       <r>    -6.9253     0.0000    26.0000 </r>
       <r>    -6.8435     0.0000    26.0000 </r>
       <r>    -6.7618     0.0000    26.0000 </r>
       <r>    -6.6800     0.0000    26.0000 </r>
       <r>    -6.5983     0.0000    26.0000 </r>
       <r>    -6.5165     0.0000    26.0000 </r>
       <r>    -6.4347     0.0000    26.0000 </r>
       <r>    -6.3530     0.0000    26.0000 </r>
       <r>    -6.2712     0.0000    26.0000 </r>
       <r>    -6.1895     0.0000    26.0000 </r>
       <r>    -6.1077     0.1105    26.0090 </r>
       <r>    -6.0260     9.2533    26.7656 </r>
       <r>    -5.9442    14.5611    27.9560 </r>
       <r>    -5.8624     0.5712    28.0027 </r>
       <r>    -5.7807     6.0051    28.4937 </r>
       <r>    -5.6989    17.1583    29.8965 </r>
       <r>    -5.6172     1.2655    29.9999 </r>
       <r>    -5.5354     0.0010    30.0000 </r>
       <r>    -5.4537     0.0000    30.0000 </r>
       <r>    -5.3719     0.0000    30.0000 </r>
       <r>    -5.2902     0.0000    30.0000 </r>
       <r>    -5.2084     0.0000    30.0000 </r>
       <r>    -5.1266     0.0000    30.0000 </r>
       <r>    -5.0449     0.0000    30.0000 </r>
       <r>    -4.9631     0.0000    30.0000 </r>
       <r>    -4.8814     0.0000    30.0000 </r>
       <r>    -4.7996     0.0000    30.0000 </r>
       <r>    -4.7179     0.0000    30.0000 </r>
       <r>    -4.6361     0.0000    30.0000 </r>
       <r>    -4.5543     0.0000    30.0000 </r>
       <r>    -4.4726     0.0000    30.0000 </r>
       <r>    -4.3908     0.0000    30.0000 </r>
       <r>    -4.3091     0.0000    30.0000 </r>
       <r>    -4.2273     0.0000    30.0000 </r>
       <r>    -4.1456     0.0000    30.0000 </r>
       <r>    -4.0638     0.0000    30.0000 </r>
       <r>    -3.9821     0.0000    30.0000 </r>
       <r>    -3.9003     0.0000    30.0000 </r>
       <r>    -3.8185     0.0000    30.0000 </r>
       <r>    -3.7368     0.0000    30.0000 </r>
       <r>    -3.6550     0.0000    30.0000 </r>
       <r>    -3.5733     0.0000    30.0000 </r>
       <r>    -3.4915     0.0000    30.0000 </r>
       <r>    -3.4098     0.0000    30.0000 </r>
       <r>    -3.3280     0.0000    30.0000 </r>
       <r>    -3.2462     0.0000    30.0000 </r>
       <r>    -3.1645     0.0000    30.0000 </r>
       <r>    -3.0827     0.0000    30.0000 </r>
       <r>    -3.0010     0.0000    30.0000 </r>
       <r>    -2.9192     0.0000    30.0000 </r>
       <r>    -2.8375     0.0000    30.0000 </r>
       <r>    -2.7557     0.0000    30.0000 </r>
       <r>    -2.6740     0.0000    30.0000 </r>
       <r>    -2.5922     0.0000    30.0000 </r>
       <r>    -2.5104     0.0000    30.0000 </r>
       <r>    -2.4287     0.0000    30.0000 </r>
       <r>    -2.3469     0.0000    30.0000 </r>
       <r>    -2.2652     0.0000    30.0000 </r>
       <r>    -2.1834     0.0000    30.0000 </r>
       <r>    -2.1017     0.0000    30.0000 </r>
       <r>    -2.0199     0.0000    30.0000 </r>
       <r>    -1.9381     0.0000    30.0000 </r>
       <r>    -1.8564     0.0000    30.0000 </r>
       <r>    -1.7746     0.0000    30.0000 </r>
       <r>    -1.6929     0.0000    30.0000 </r>
       <r>    -1.6111     0.0000    30.0000 </r>
       <r>    -1.5294     0.0000    30.0000 </r>
       <r>    -1.4476     0.0000    30.0000 </r>
       <r>    -1.3659     0.0000    30.0000 </r>
       <r>    -1.2841     0.0000    30.0000 </r>
       <r>    -1.2023     0.0000    30.0000 </r>
       <r>    -1.1206     0.0000    30.0000 </r>
       <r>    -1.0388     0.0000    30.0000 </r>
       <r>    -0.9571     0.0889    30.0073 </r>
       <r>    -0.8753    11.6845    30.9625 </r>
       <r>    -0.7936    33.7600    33.7226 </r>
       <r>    -0.7118     3.3873    33.9996 </r>
       <r>    -0.6300     0.0053    34.0000 </r>
       <r>    -0.5483     0.0775    34.0063 </r>
       <r>    -0.4665     8.1972    34.6765 </r>
       <r>    -0.3848    15.4779    35.9419 </r>
       <r>    -0.3030     0.7099    36.0000 </r>
       <r>    -0.2213     0.0003    36.0000 </r>
       <r>    -0.1395     0.0000    36.0000 </r>
       <r>    -0.0578     0.0000    36.0000 </r>
       <r>     0.0240     0.0000    36.0000 </r>
       <r>     0.1058     0.0000    36.0000 </r>
       <r>     0.1875     0.0000    36.0000 </r>
       <r>     0.2693     0.0000    36.0000 </r>
       <r>     0.3510     0.0000    36.0000 </r>
       <r>     0.4328     0.0000    36.0000 </r>
       <r>     0.5145     0.0000    36.0000 </r>
       <r>     0.5963     0.0104    36.0009 </r>
       <r>     0.6781     3.7401    36.3066 </r>
       <r>     0.7598    20.6712    37.9966 </r>
       <r>     0.8416    26.8231    40.1896 </r>
       <r>     0.9233    41.1600    43.5547 </r>
       <r>     1.0051    24.4081    45.5502 </r>
       <r>     1.0868     5.4759    45.9979 </r>
       <r>     1.1686     0.0261    46.0000 </r>
       <r>     1.2503     0.0000    46.0000 </r>
       <r>     1.3321     0.0197    46.0016 </r>
       <r>     1.4139     4.8779    46.4004 </r>
       <r>     1.4956    17.8389    47.8589 </r>
       <r>     1.5774     1.7245    47.9998 </r>
       <r>     1.6591     0.0019    48.0000 </r>
       <r>     1.7409     0.0000    48.0000 </r>
       <r>     1.8226     0.0000    48.0000 </r>
       <r>     1.9044     0.0000    48.0000 </r>
       <r>     1.9862     0.0000    48.0000 </r>
       <r>     2.0679     0.0000    48.0000 </r>
       <r>     2.1497     0.0000    48.0000 </r>
       <r>     2.2314     0.0000    48.0000 </r>
       <r>     2.3132     0.0000    48.0000 </r>
       <r>     2.3949     0.0000    48.0000 </r>
       <r>     2.4767     0.0000    48.0000 </r>
       <r>     2.5584     0.0000    48.0000 </r>
      </set>
     </set>
    </array>
   </total>
  </dos>
 </calculation>
 <structure name="finalpos" >
  <crystal>
   <varray name="basis" >
    <v>      10.58354422       0.00000000       0.00000000 </v>
    <v>       0.00000000      10.58354422       0.00000000 </v>
    <v>       0.00000000       0.00000000      10.58354422 </v>
   </varray>
   <i name="volume">   1185.47769178 </i>
   <varray name="rec_basis" >
    <v>       0.09448631       0.00000000       0.00000000 </v>
    <v>       0.00000000       0.09448631       0.00000000 </v>
    <v>       0.00000000       0.00000000       0.09448631 </v>
   </varray>
  </crystal>
  <varray name="positions" >
   <v>       0.50053100       0.63638180       0.49629215 </v>
   <v>       0.38828165       0.56751905       0.50424035 </v>
   <v>       0.38901800       0.43770310       0.50445115 </v>
   <v>       0.49954910       0.36539170       0.49831870 </v>
   <v>       0.61047610       0.43361695       0.49818050 </v>
   <v>       0.61153690       0.57007565       0.50108925 </v>
   <v>       0.50127190       0.74005730       0.48084770 </v>
   <v>       0.30159880       0.61227900       0.51484190 </v>
   <v>       0.29732480       0.37958155       0.49117960 </v>
   <v>       0.50215420       0.25909010       0.49930655 </v>
   <v>       0.69625435       0.38086535       0.49858490 </v>
   <v>       0.70200300       0.61743855       0.51266710 </v>
  </varray>
 </structure>
</modeling>
