<?xml version="1.0" encoding="ISO-8859-1"?>
<modeling>
 <generator>
  <i name="program" type="string">vasp </i>
  <i name="version" type="string">6.2.0  </i>
  <i name="subversion" type="string">18Jan21 (build Mar 25 2021 14:28:09) complex                          parallel </i>
  <i name="platform" type="string">LinuxGNU </i>
  <i name="date" type="string">2021 12 20 </i>
  <i name="time" type="string">09:55:20 </i>
 </generator>
 <incar>
  <i type="string" name="SYSTEM">benzene</i>
  <i type="int" name="ISTART">     0</i>
  <i type="string" name="PREC">Accurate</i>
  <i type="string" name="ALGO">Normal</i>
  <i type="int" name="NELM">   200</i>
  <i type="int" name="IBRION">    -1</i>
  <i name="EDIFF">      0.00000100</i>
  <i type="int" name="NSW">     0</i>
  <i name="ENCUT">    600.00000000</i>
  <i type="logical" name="LREAL"> F  </i>
  <i type="int" name="ISMEAR">     0</i>
  <i name="SIGMA">      0.05000000</i>
  <i type="logical" name="LWAVE"> F  </i>
  <i type="logical" name="LCHARG"> T  </i>
  <i type="string" name="GGA">PE</i>
 </incar>
 <primitive_cell>
  <structure name="primitive_cell" >
   <crystal>
    <varray name="basis" >
     <v>      10.58354422       0.00000000       0.00000000 </v>
     <v>       0.00000000      10.58354422       0.00000000 </v>
     <v>       0.00000000       0.00000000      10.58354422 </v>
    </varray>
    <i name="volume">   1185.47769178 </i>
    <varray name="rec_basis" >
     <v>       0.09448631       0.00000000       0.00000000 </v>
     <v>       0.00000000       0.09448631       0.00000000 </v>
     <v>       0.00000000       0.00000000       0.09448631 </v>
    </varray>
   </crystal>
   <varray name="positions" >
    <v>       0.50031135       0.63119810       0.50089840 </v>
    <v>       0.38151085       0.56568885       0.50004515 </v>
    <v>       0.38657505       0.43929585       0.49952670 </v>
    <v>       0.49989690       0.37011535       0.50002440 </v>
    <v>       0.61429665       0.43311200       0.50176975 </v>
    <v>       0.61526385       0.56727170       0.49811840 </v>
    <v>       0.49956090       0.73596510       0.50134435 </v>
    <v>       0.29567535       0.62174020       0.49997385 </v>
    <v>       0.30556900       0.38137935       0.49988490 </v>
    <v>       0.50762185       0.26283305       0.49879445 </v>
    <v>       0.69538850       0.37348615       0.50199100 </v>
    <v>       0.69832965       0.61791425       0.49762860 </v>
   </varray>
  </structure>
  <varray name="primitive_index" >
   <v type="int" >        1 </v>
   <v type="int" >        2 </v>
   <v type="int" >        3 </v>
   <v type="int" >        4 </v>
   <v type="int" >        5 </v>
   <v type="int" >        6 </v>
   <v type="int" >        7 </v>
   <v type="int" >        8 </v>
   <v type="int" >        9 </v>
   <v type="int" >       10 </v>
   <v type="int" >       11 </v>
   <v type="int" >       12 </v>
  </varray>
 </primitive_cell>
 <kpoints>
  <generation param="Gamma">
   <v type="int" name="divisions">       1        1        1 </v>
   <v name="usershift">      0.00000000       0.00000000       0.00000000 </v>
   <v name="genvec1">      1.00000000       0.00000000       0.00000000 </v>
   <v name="genvec2">      0.00000000       1.00000000       0.00000000 </v>
   <v name="genvec3">      0.00000000       0.00000000       1.00000000 </v>
   <v name="shift">      0.00000000       0.00000000       0.00000000 </v>
  </generation>
  <varray name="kpointlist" >
   <v>       0.00000000       0.00000000       0.00000000 </v>
  </varray>
  <varray name="weights" >
   <v>       1.00000000 </v>
  </varray>
 </kpoints>
 <parameters>
  <separator name="general" >
   <i type="string" name="SYSTEM">benzene</i>
   <i type="logical" name="LCOMPAT"> F  </i>
  </separator>
  <separator name="electronic" >
   <i type="string" name="PREC">accura</i>
   <i name="ENMAX">    600.00000000</i>
   <i name="ENAUG">    644.87300000</i>
   <i name="EDIFF">      0.00000100</i>
   <i type="int" name="IALGO">    38</i>
   <i type="int" name="IWAVPR">    10</i>
   <i type="int" name="NBANDS">    24</i>
   <i type="int" name="NBANDSLOW">    -1</i>
   <i type="int" name="NBANDSHIGH">    -1</i>
   <i name="NELECT">     30.00000000</i>
   <i type="int" name="TURBO">     0</i>
   <i type="int" name="IRESTART">     0</i>
   <i type="int" name="NREBOOT">     0</i>
   <i type="int" name="NMIN">     0</i>
   <i name="EREF">      0.00000000</i>
   <separator name="electronic smearing" >
    <i type="int" name="ISMEAR">     0</i>
    <i name="SIGMA">      0.05000000</i>
    <i name="KSPACING">      0.50000000</i>
    <i type="logical" name="KGAMMA"> T  </i>
    <i type="logical" name="KBLOWUP"> T  </i>
   </separator>
   <separator name="electronic projectors" >
    <i type="logical" name="LREAL"> F  </i>
    <v name="ROPT">      0.00000000      0.00000000</v>
    <i type="int" name="LMAXPAW">  -100</i>
    <i type="int" name="LMAXMIX">     2</i>
    <i type="logical" name="NLSPLINE"> F  </i>
   </separator>
   <separator name="electronic startup" >
    <i type="int" name="ISTART">     0</i>
    <i type="int" name="ICHARG">     2</i>
    <i type="int" name="INIWAV">     1</i>
   </separator>
   <separator name="electronic spin" >
    <i type="int" name="ISPIN">     1</i>
    <i type="logical" name="LNONCOLLINEAR"> F  </i>
    <v name="MAGMOM">      1.00000000      1.00000000      1.00000000      1.00000000      1.00000000      1.00000000      1.00000000      1.00000000      1.00000000      1.00000000      1.00000000      1.00000000</v>
    <i name="NUPDOWN">     -1.00000000</i>
    <i type="logical" name="LSORBIT"> F  </i>
    <v name="SAXIS">      0.00000000      0.00000000      1.00000000</v>
    <i type="logical" name="LSPIRAL"> F  </i>
    <v name="QSPIRAL">      0.00000000      0.00000000      0.00000000</v>
    <i type="logical" name="LZEROZ"> F  </i>
   </separator>
   <separator name="electronic exchange-correlation" >
    <i type="logical" name="LASPH"> F  </i>
    <i type="logical" name="LMETAGGA"> F  </i>
   </separator>
   <separator name="electronic convergence" >
    <i type="int" name="NELM">   200</i>
    <i type="int" name="NELMDL">    -5</i>
    <i type="int" name="NELMIN">     2</i>
    <i name="ENINI">    600.00000000</i>
    <separator name="electronic convergence detail" >
     <i type="logical" name="LDIAG"> T  </i>
     <i type="logical" name="LSUBROT"> F  </i>
     <i name="WEIMIN">      0.00000000</i>
     <i name="EBREAK">      0.00000001</i>
     <i name="DEPER">      0.30000000</i>
     <i type="int" name="NRMM">     4</i>
     <i name="TIME">      0.40000000</i>
    </separator>
   </separator>
   <separator name="electronic mixer" >
    <i name="AMIX">      0.40000000</i>
    <i name="BMIX">      1.00000000</i>
    <i name="AMIN">      0.10000000</i>
    <i name="AMIX_MAG">      1.60000000</i>
    <i name="BMIX_MAG">      1.00000000</i>
    <separator name="electronic mixer details" >
     <i type="int" name="IMIX">     4</i>
     <i type="logical" name="MIXFIRST"> F  </i>
     <i type="int" name="MAXMIX">   -45</i>
     <i name="WC">    100.00000000</i>
     <i type="int" name="INIMIX">     1</i>
     <i type="int" name="MIXPRE">     1</i>
     <i type="int" name="MREMOVE">     5</i>
    </separator>
   </separator>
   <separator name="electronic dipolcorrection" >
    <i type="logical" name="LDIPOL"> F  </i>
    <i type="logical" name="LMONO"> F  </i>
    <i type="int" name="IDIPOL">     0</i>
    <i name="EPSILON">      1.00000000</i>
    <v name="DIPOL">   -100.00000000   -100.00000000   -100.00000000</v>
    <i name="EFIELD">      0.00000000</i>
   </separator>
  </separator>
  <separator name="grids" >
   <i type="int" name="NGX">    90</i>
   <i type="int" name="NGY">    90</i>
   <i type="int" name="NGZ">    90</i>
   <i type="int" name="NGXF">   180</i>
   <i type="int" name="NGYF">   180</i>
   <i type="int" name="NGZF">   180</i>
   <i type="logical" name="ADDGRID"> F  </i>
  </separator>
  <separator name="ionic" >
   <i type="int" name="NSW">     0</i>
   <i type="int" name="IBRION">    -1</i>
   <i type="int" name="MDALGO">     0</i>
   <i type="int" name="ISIF">     2</i>
   <i name="PSTRESS">      0.00000000</i>
   <i name="EDIFFG">      0.00001000</i>
   <i type="int" name="NFREE">     0</i>
   <i name="POTIM">      0.50000000</i>
   <i name="SMASS">     -3.00000000</i>
   <i name="SCALEE">      1.00000000</i>
  </separator>
  <separator name="ionic md" >
   <i name="TEBEG">      0.00010000</i>
   <i name="TEEND">      0.00010000</i>
   <i type="int" name="NBLOCK">     1</i>
   <i type="int" name="KBLOCK">     1</i>
   <i type="int" name="NPACO">   256</i>
   <i name="APACO">     16.00000000</i>
  </separator>
  <separator name="symmetry" >
   <i type="int" name="ISYM">     2</i>
   <i name="SYMPREC">      0.00001000</i>
  </separator>
  <separator name="dos" >
   <i type="int" name="LORBIT">     0</i>
   <v name="RWIGS">     -1.00000000     -1.00000000</v>
   <i type="int" name="NEDOS">   301</i>
   <i name="EMIN">     10.00000000</i>
   <i name="EMAX">    -10.00000000</i>
   <i name="EFERMI">      0.00000000</i>
  </separator>
  <separator name="writing" >
   <i type="int" name="NWRITE">     2</i>
   <i type="logical" name="LWAVE"> F  </i>
   <i type="logical" name="LDOWNSAMPLE"> F  </i>
   <i type="logical" name="LCHARG"> T  </i>
   <i type="logical" name="LPARD"> F  </i>
   <i type="logical" name="LVTOT"> F  </i>
   <i type="logical" name="LVHAR"> F  </i>
   <i type="logical" name="LELF"> F  </i>
   <i type="logical" name="LOPTICS"> F  </i>
   <v name="STM">      0.00000000      0.00000000      0.00000000      0.00000000      0.00000000      0.00000000      0.00000000</v>
  </separator>
  <separator name="performance" >
   <i type="int" name="NPAR">     4</i>
   <i type="int" name="NSIM">     4</i>
   <i type="int" name="NBLK">    -1</i>
   <i type="logical" name="LPLANE"> T  </i>
   <i type="logical" name="LSCALAPACK"> T  </i>
   <i type="logical" name="LSCAAWARE"> F  </i>
   <i type="logical" name="LSCALU"> F  </i>
   <i type="logical" name="LASYNC"> F  </i>
   <i type="logical" name="LORBITALREAL"> F  </i>
  </separator>
  <separator name="miscellaneous" >
   <i type="int" name="IDIOT">     3</i>
   <i type="int" name="PHON_NSTRUCT">    -1</i>
   <i type="logical" name="LMUSIC"> F  </i>
   <v name="POMASS">     12.01100000      1.00000000</v>
   <v name="DARWINR">      0.00000000      0.00000000</v>
   <v name="DARWINV">      1.00000000      1.00000000</v>
   <i type="logical" name="LCORR"> T  </i>
  </separator>
  <i type="logical" name="GGA_COMPAT"> T  </i>
  <i type="logical" name="LBERRY"> F  </i>
  <i type="int" name="ICORELEVEL">     0</i>
  <i type="logical" name="LDAU"> F  </i>
  <i type="int" name="I_CONSTRAINED_M">     0</i>
  <separator name="electronic exchange-correlation" >
   <i type="string" name="GGA">PE</i>
   <i type="int" name="VOSKOWN">     0</i>
   <i type="logical" name="LHFCALC"> F  </i>
   <i type="string" name="PRECFOCK"></i>
   <i type="logical" name="LSYMGRAD"> F  </i>
   <i type="logical" name="LHFONE"> F  </i>
   <i type="logical" name="LRHFCALC"> F  </i>
   <i type="logical" name="LTHOMAS"> F  </i>
   <i type="logical" name="LMODELHF"> F  </i>
   <i type="logical" name="LFOCKACE"> F  </i>
   <i name="ENCUT4O">     -1.00000000</i>
   <i type="int" name="EXXOEP">     0</i>
   <i type="int" name="FOURORBIT">     0</i>
   <i name="AEXX">      0.00000000</i>
   <i name="HFALPHA">      0.00000000</i>
   <i name="MCALPHA">      0.00000000</i>
   <i name="ALDAX">      1.00000000</i>
   <i name="AGGAX">      1.00000000</i>
   <i name="ALDAC">      1.00000000</i>
   <i name="AGGAC">      1.00000000</i>
   <i type="int" name="NKREDX">     1</i>
   <i type="int" name="NKREDY">     1</i>
   <i type="int" name="NKREDZ">     1</i>
   <i type="logical" name="SHIFTRED"> F  </i>
   <i type="logical" name="ODDONLY"> F  </i>
   <i type="logical" name="EVENONLY"> F  </i>
   <i type="int" name="LMAXFOCK">     0</i>
   <i type="int" name="NMAXFOCKAE">     0</i>
   <i type="logical" name="LFOCKAEDFT"> F  </i>
   <i name="HFSCREEN">      0.00000000</i>
   <i name="HFSCREENC">      0.00000000</i>
   <i type="int" name="NBANDSGWLOW">     0</i>
  </separator>
  <separator name="vdW DFT" >
   <i type="logical" name="LUSE_VDW"> F  </i>
   <i name="Zab_VDW">     -0.84910000</i>
   <i name="PARAM1">      0.12340000</i>
   <i name="PARAM2">      1.00000000</i>
   <i name="PARAM3">      0.00000000</i>
  </separator>
  <separator name="model GW" >
   <i type="int" name="MODEL_GW">     0</i>
   <i name="MODEL_EPS0">     59.27388459</i>
   <i name="MODEL_ALPHA">      1.00000000</i>
  </separator>
  <separator name="linear response parameters" >
   <i type="logical" name="LEPSILON"> F  </i>
   <i type="logical" name="LRPA"> F  </i>
   <i type="logical" name="LNABLA"> F  </i>
   <i type="logical" name="LVEL"> F  </i>
   <i type="int" name="KINTER">     0</i>
   <i name="CSHIFT">      0.10000000</i>
   <i name="OMEGAMAX">     -1.00000000</i>
   <i name="DEG_THRESHOLD">      0.00200000</i>
   <i name="RTIME">     -0.10000000</i>
   <i name="WPLASMAI">      0.00000000</i>
   <v name="DFIELD">      0.00000000      0.00000000      0.00000000</v>
   <v name="WPLASMA">      0.00000000      0.00000000      0.00000000      0.00000000      0.00000000      0.00000000      0.00000000      0.00000000      0.00000000</v>
  </separator>
  <separator name="orbital magnetization" >
   <i type="logical" name="NUCIND"> F  </i>
   <v name="MAGPOS">      0.00000000      0.00000000      0.00000000</v>
   <i type="logical" name="LNICSALL"> T  </i>
   <i type="logical" name="ORBITALMAG"> F  </i>
   <i type="logical" name="LMAGBLOCH"> F  </i>
   <i type="logical" name="LCHIMAG"> F  </i>
   <i type="logical" name="LGAUGE"> T  </i>
   <i type="int" name="MAGATOM">     0</i>
   <v name="MAGDIPOL">      0.00000000      0.00000000      0.00000000</v>
   <v name="AVECCONST">      0.00000000      0.00000000      0.00000000</v>
  </separator>
  <separator name="response functions" >
   <i type="logical" name="LFINITE_TEMPERATURE"> F  </i>
   <i type="logical" name="LADDER"> F  </i>
   <i type="logical" name="LRPAFORCE"> F  </i>
   <i type="logical" name="LFXC"> F  </i>
   <i type="logical" name="LHARTREE"> T  </i>
   <i type="int" name="IBSE">     0</i>
   <v type="int" name="KPOINT">    -1     0     0     0</v>
   <i type="logical" name="LTCTC"> F  </i>
   <i type="logical" name="LTCTE"> F  </i>
   <i type="logical" name="LTETE"> F  </i>
   <i type="logical" name="LTRIPLET"> F  </i>
   <i type="logical" name="LFXCEPS"> F  </i>
   <i type="logical" name="LFXHEG"> F  </i>
   <i type="int" name="NATURALO">     2</i>
   <i type="logical" name="LHOLEGF"> F  </i>
   <i type="logical" name="L2ORDER"> F  </i>
   <i type="logical" name="LDMP1"> F  </i>
   <i type="logical" name="LMP2LT"> F  </i>
   <i type="logical" name="LSMP2LT"> F  </i>
   <i type="logical" name="LGWLF"> F  </i>
   <i name="ENCUTGW">     -2.00000000</i>
   <i name="ENCUTGWSOFT">     -2.00000000</i>
   <i name="ENCUTLF">     -1.00000000</i>
   <i type="logical" name="LESF_SPLINES"> F  </i>
   <i type="int" name="LMAXMP2">    -1</i>
   <i name="SCISSOR">      0.00000000</i>
   <i type="int" name="NOMEGA">     0</i>
   <i type="int" name="NOMEGAR">     0</i>
   <i type="int" name="NBANDSGW">    -1</i>
   <i type="int" name="NBANDSO">    -1</i>
   <i type="int" name="NBANDSV">    -1</i>
   <i type="int" name="NELM">   200</i>
   <i type="int" name="NELMHF">     1</i>
   <i type="int" name="DIM">     3</i>
   <i type="int" name="IESPILON">     4</i>
   <i type="int" name="ANTIRES">     0</i>
   <i name="OMEGAMAX">    -30.00000000</i>
   <i name="OMEGAMIN">    -30.00000000</i>
   <i name="OMEGATL">   -200.00000000</i>
   <i type="int" name="OMEGAGRID">     0</i>
   <i name="CSHIFT">     -0.10000000</i>
   <i type="logical" name="LSELFENERGY"> F  </i>
   <i type="logical" name="LSPECTRAL"> F  </i>
   <i type="logical" name="LSPECTRALGW"> F  </i>
   <i type="logical" name="LSINGLES"> F  </i>
   <i type="logical" name="LFERMIGW"> F  </i>
   <i type="logical" name="ODDONLYGW"> F  </i>
   <i type="logical" name="EVENONLYGW"> F  </i>
   <i type="int" name="NKREDLFX">     1</i>
   <i type="int" name="NKREDLFY">     1</i>
   <i type="int" name="NKREDLFZ">     1</i>
   <i type="int" name="MAXMEM">  2800</i>
   <i type="int" name="TELESCOPE">     0</i>
   <i type="int" name="NTAUPAR">    -1</i>
   <i type="int" name="NOMEGAPAR">    -1</i>
   <i name="DAMP_NEWTON">      0.80000001</i>
   <i name="LAMBDA">      1.00000000</i>
  </separator>
  <separator name="External order field" >
   <i name="OFIELD_KAPPA">      0.00000000</i>
   <v name="OFIELD_K">      0.00000000      0.00000000      0.00000000</v>
   <i name="OFIELD_Q6_NEAR">      0.00000000</i>
   <i name="OFIELD_Q6_FAR">      0.00000000</i>
   <i name="OFIELD_A">      0.00000000</i>
  </separator>
 </parameters>
 <atominfo>
  <atoms>      12 </atoms>
  <types>       2 </types>
  <array name="atoms" >
   <dimension dim="1">ion</dimension>
   <field type="string">element</field>
   <field type="int">atomtype</field>
   <set>
    <rc><c>C </c><c>   1</c></rc>
    <rc><c>C </c><c>   1</c></rc>
    <rc><c>C </c><c>   1</c></rc>
    <rc><c>C </c><c>   1</c></rc>
    <rc><c>C </c><c>   1</c></rc>
    <rc><c>C </c><c>   1</c></rc>
    <rc><c>H </c><c>   2</c></rc>
    <rc><c>H </c><c>   2</c></rc>
    <rc><c>H </c><c>   2</c></rc>
    <rc><c>H </c><c>   2</c></rc>
    <rc><c>H </c><c>   2</c></rc>
    <rc><c>H </c><c>   2</c></rc>
   </set>
  </array>
  <array name="atomtypes" >
   <dimension dim="1">type</dimension>
   <field type="int">atomspertype</field>
   <field type="string">element</field>
   <field>mass</field>
   <field>valence</field>
   <field type="string">pseudopotential</field>
   <set>
    <rc><c>   6</c><c>C </c><c>     12.01100000</c><c>      4.00000000</c><c>  PAW_PBE C 08Apr2002                   </c></rc>
    <rc><c>   6</c><c>H </c><c>      1.00000000</c><c>      1.00000000</c><c>  PAW_PBE H 15Jun2001                   </c></rc>
   </set>
  </array>
 </atominfo>
 <structure name="initialpos" >
  <crystal>
   <varray name="basis" >
    <v>      10.58354422       0.00000000       0.00000000 </v>
    <v>       0.00000000      10.58354422       0.00000000 </v>
    <v>       0.00000000       0.00000000      10.58354422 </v>
   </varray>
   <i name="volume">   1185.47769178 </i>
   <varray name="rec_basis" >
    <v>       0.09448631       0.00000000       0.00000000 </v>
    <v>       0.00000000       0.09448631       0.00000000 </v>
    <v>       0.00000000       0.00000000       0.09448631 </v>
   </varray>
  </crystal>
  <varray name="positions" >
   <v>       0.50031135       0.63119810       0.50089840 </v>
   <v>       0.38151085       0.56568885       0.50004515 </v>
   <v>       0.38657505       0.43929585       0.49952670 </v>
   <v>       0.49989690       0.37011535       0.50002440 </v>
   <v>       0.61429665       0.43311200       0.50176975 </v>
   <v>       0.61526385       0.56727170       0.49811840 </v>
   <v>       0.49956090       0.73596510       0.50134435 </v>
   <v>       0.29567535       0.62174020       0.49997385 </v>
   <v>       0.30556900       0.38137935       0.49988490 </v>
   <v>       0.50762185       0.26283305       0.49879445 </v>
   <v>       0.69538850       0.37348615       0.50199100 </v>
   <v>       0.69832965       0.61791425       0.49762860 </v>
  </varray>
 </structure>
 <calculation>
  <scstep>
   <time name="dav">    0.21    0.21</time>
   <time name="total">    0.47    0.47</time>
   <energy>
    <i name="alphaZ">      3.48814018 </i>
    <i name="ewald">   1139.18427511 </i>
    <i name="hartreedc">  -1770.68968479 </i>
    <i name="XCdc">     91.45216884 </i>
    <i name="pawpsdc">    663.93644290 </i>
    <i name="pawaedc">   -667.40614445 </i>
    <i name="eentropy">     -0.00000000 </i>
    <i name="bandstr">   -200.04548188 </i>
    <i name="atom">    957.82965714 </i>
    <i name="e_fr_energy">    217.74937305 </i>
    <i name="e_wo_entrp">    217.74937305 </i>
    <i name="e_0_energy">    217.74937305 </i>
   </energy>
  </scstep>
  <scstep>
   <time name="dav">    0.25    0.25</time>
   <time name="total">    0.25    0.25</time>
   <energy>
    <i name="e_fr_energy">     -2.91161338 </i>
    <i name="e_wo_entrp">     -2.91161338 </i>
    <i name="e_0_energy">     -2.91161338 </i>
   </energy>
  </scstep>
  <scstep>
   <time name="dav">    0.21    0.21</time>
   <time name="total">    0.21    0.21</time>
   <energy>
    <i name="e_fr_energy">    -78.33737358 </i>
    <i name="e_wo_entrp">    -78.33737358 </i>
    <i name="e_0_energy">    -78.33737358 </i>
   </energy>
  </scstep>
  <scstep>
   <time name="dav">    0.19    0.19</time>
   <time name="total">    0.19    0.19</time>
   <energy>
    <i name="e_fr_energy">    -84.04766123 </i>
    <i name="e_wo_entrp">    -84.04766123 </i>
    <i name="e_0_energy">    -84.04766123 </i>
   </energy>
  </scstep>
  <scstep>
   <time name="dav">    0.25    0.25</time>
   <time name="total">    0.29    0.29</time>
   <energy>
    <i name="e_fr_energy">    -84.16233127 </i>
    <i name="e_wo_entrp">    -84.16233127 </i>
    <i name="e_0_energy">    -84.16233127 </i>
   </energy>
  </scstep>
  <scstep>
   <time name="dav">    0.22    0.22</time>
   <time name="total">    0.51    0.52</time>
   <energy>
    <i name="e_fr_energy">    -77.68036154 </i>
    <i name="e_wo_entrp">    -77.68036154 </i>
    <i name="e_0_energy">    -77.68036154 </i>
   </energy>
  </scstep>
  <scstep>
   <time name="dav">    0.25    0.25</time>
   <time name="total">    0.55    0.55</time>
   <energy>
    <i name="e_fr_energy">    -75.82111370 </i>
    <i name="e_wo_entrp">    -75.82111370 </i>
    <i name="e_0_energy">    -75.82111370 </i>
   </energy>
  </scstep>
  <scstep>
   <time name="dav">    0.21    0.21</time>
   <time name="total">    0.50    0.51</time>
   <energy>
    <i name="e_fr_energy">    -75.65116045 </i>
    <i name="e_wo_entrp">    -75.65116045 </i>
    <i name="e_0_energy">    -75.65116045 </i>
   </energy>
  </scstep>
  <scstep>
   <time name="dav">    0.25    0.25</time>
   <time name="total">    0.54    0.55</time>
   <energy>
    <i name="e_fr_energy">    -75.62442857 </i>
    <i name="e_wo_entrp">    -75.62442857 </i>
    <i name="e_0_energy">    -75.62442857 </i>
   </energy>
  </scstep>
  <scstep>
   <time name="dav">    0.19    0.19</time>
   <time name="total">    0.48    0.48</time>
   <energy>
    <i name="e_fr_energy">    -75.61931110 </i>
    <i name="e_wo_entrp">    -75.61931110 </i>
    <i name="e_0_energy">    -75.61931110 </i>
   </energy>
  </scstep>
  <scstep>
   <time name="dav">    0.20    0.20</time>
   <time name="total">    0.49    0.49</time>
   <energy>
    <i name="e_fr_energy">    -75.61052326 </i>
    <i name="e_wo_entrp">    -75.61052326 </i>
    <i name="e_0_energy">    -75.61052326 </i>
   </energy>
  </scstep>
  <scstep>
   <time name="dav">    0.21    0.21</time>
   <time name="total">    0.49    0.49</time>
   <energy>
    <i name="e_fr_energy">    -75.61487183 </i>
    <i name="e_wo_entrp">    -75.61487183 </i>
    <i name="e_0_energy">    -75.61487183 </i>
   </energy>
  </scstep>
  <scstep>
   <time name="dav">    0.23    0.23</time>
   <time name="total">    0.50    0.51</time>
   <energy>
    <i name="e_fr_energy">    -75.62563119 </i>
    <i name="e_wo_entrp">    -75.62563119 </i>
    <i name="e_0_energy">    -75.62563119 </i>
   </energy>
  </scstep>
  <scstep>
   <time name="dav">    0.21    0.21</time>
   <time name="total">    0.48    0.49</time>
   <energy>
    <i name="e_fr_energy">    -75.63220682 </i>
    <i name="e_wo_entrp">    -75.63220682 </i>
    <i name="e_0_energy">    -75.63220682 </i>
   </energy>
  </scstep>
  <scstep>
   <time name="dav">    0.21    0.21</time>
   <time name="total">    0.48    0.48</time>
   <energy>
    <i name="e_fr_energy">    -75.63577101 </i>
    <i name="e_wo_entrp">    -75.63577101 </i>
    <i name="e_0_energy">    -75.63577101 </i>
   </energy>
  </scstep>
  <scstep>
   <time name="dav">    0.23    0.23</time>
   <time name="total">    0.50    0.51</time>
   <energy>
    <i name="e_fr_energy">    -75.63698136 </i>
    <i name="e_wo_entrp">    -75.63698136 </i>
    <i name="e_0_energy">    -75.63698136 </i>
   </energy>
  </scstep>
  <scstep>
   <time name="dav">    0.23    0.23</time>
   <time name="total">    0.50    0.51</time>
   <energy>
    <i name="e_fr_energy">    -75.63742955 </i>
    <i name="e_wo_entrp">    -75.63742955 </i>
    <i name="e_0_energy">    -75.63742955 </i>
   </energy>
  </scstep>
  <scstep>
   <time name="dav">    0.24    0.24</time>
   <time name="total">    0.52    0.52</time>
   <energy>
    <i name="e_fr_energy">    -75.63753413 </i>
    <i name="e_wo_entrp">    -75.63753413 </i>
    <i name="e_0_energy">    -75.63753413 </i>
   </energy>
  </scstep>
  <scstep>
   <time name="dav">    0.21    0.21</time>
   <time name="total">    0.49    0.49</time>
   <energy>
    <i name="e_fr_energy">    -75.63757513 </i>
    <i name="e_wo_entrp">    -75.63757513 </i>
    <i name="e_0_energy">    -75.63757513 </i>
   </energy>
  </scstep>
  <scstep>
   <time name="dav">    0.19    0.19</time>
   <time name="total">    0.47    0.48</time>
   <energy>
    <i name="e_fr_energy">    -75.63758609 </i>
    <i name="e_wo_entrp">    -75.63758609 </i>
    <i name="e_0_energy">    -75.63758609 </i>
   </energy>
  </scstep>
  <scstep>
   <time name="dav">    0.19    0.19</time>
   <time name="total">    0.47    0.48</time>
   <energy>
    <i name="e_fr_energy">    -75.63759115 </i>
    <i name="e_wo_entrp">    -75.63759115 </i>
    <i name="e_0_energy">    -75.63759115 </i>
   </energy>
  </scstep>
  <scstep>
   <time name="dav">    0.17    0.17</time>
   <time name="total">    0.42    0.42</time>
   <energy>
    <i name="alphaZ">      3.48814018 </i>
    <i name="ewald">   1139.18427511 </i>
    <i name="hartreedc">  -1920.03563076 </i>
    <i name="XCdc">     98.46847246 </i>
    <i name="pawpsdc">   2550.48636049 </i>
    <i name="pawaedc">  -2554.76945449 </i>
    <i name="eentropy">     -0.00000000 </i>
    <i name="bandstr">   -350.28941221 </i>
    <i name="atom">    957.82965714 </i>
    <i name="e_fr_energy">    -75.63759207 </i>
    <i name="e_wo_entrp">    -75.63759207 </i>
    <i name="e_0_energy">    -75.63759207 </i>
   </energy>
  </scstep>
  <structure>
   <crystal>
    <varray name="basis" >
     <v>      10.58354422       0.00000000       0.00000000 </v>
     <v>       0.00000000      10.58354422       0.00000000 </v>
     <v>       0.00000000       0.00000000      10.58354422 </v>
    </varray>
    <i name="volume">   1185.47769178 </i>
    <varray name="rec_basis" >
     <v>       0.09448631       0.00000000       0.00000000 </v>
     <v>       0.00000000       0.09448631       0.00000000 </v>
     <v>       0.00000000       0.00000000       0.09448631 </v>
    </varray>
   </crystal>
   <varray name="positions" >
    <v>       0.50031135       0.63119810       0.50089840 </v>
    <v>       0.38151085       0.56568885       0.50004515 </v>
    <v>       0.38657505       0.43929585       0.49952670 </v>
    <v>       0.49989690       0.37011535       0.50002440 </v>
    <v>       0.61429665       0.43311200       0.50176975 </v>
    <v>       0.61526385       0.56727170       0.49811840 </v>
    <v>       0.49956090       0.73596510       0.50134435 </v>
    <v>       0.29567535       0.62174020       0.49997385 </v>
    <v>       0.30556900       0.38137935       0.49988490 </v>
    <v>       0.50762185       0.26283305       0.49879445 </v>
    <v>       0.69538850       0.37348615       0.50199100 </v>
    <v>       0.69832965       0.61791425       0.49762860 </v>
   </varray>
  </structure>
  <varray name="forces" >
   <v>      -0.77241362       0.48121385      -0.19846347 </v>
   <v>       1.81255999       2.63963096       0.08516254 </v>
   <v>       0.36937050      -2.69430403      -0.01043861 </v>
   <v>       0.53097389      -0.87509937       0.05848080 </v>
   <v>      -0.64097466       0.92774576      -0.28273598 </v>
   <v>      -2.15079665      -1.79901138       0.34476256 </v>
   <v>       0.04834133      -0.52194649      -0.02027015 </v>
   <v>      -0.25444523      -0.13732084       0.02228105 </v>
   <v>      -1.48919686      -0.49043495      -0.04391892 </v>
   <v>      -0.67505666       1.34447727       0.05748227 </v>
   <v>       1.11585911      -0.05014380       0.00410326 </v>
   <v>       2.10577886       1.17519301      -0.01644534 </v>
  </varray>
  <varray name="stress" >
   <v>       5.35998029       3.56127067       0.00606178 </v>
   <v>       3.56127068       0.78353955       0.02416210 </v>
   <v>       0.00606179       0.02416211      -0.19720489 </v>
  </varray>
  <energy>
   <i name="e_fr_energy">    -75.63759207 </i>
   <i name="e_wo_entrp">    -75.63759207 </i>
   <i name="e_0_energy">    -75.63759207 </i>
  </energy>
  <time name="totalsc">   14.93   15.11</time>
  <eigenvalues>
   <array>
    <dimension dim="1">band</dimension>
    <dimension dim="2">kpoint</dimension>
    <dimension dim="3">spin</dimension>
    <field>eigene</field>
    <field>occ</field>
    <set>
     <set comment="spin 1">
      <set comment="kpoint 1">
       <r>  -20.8127    1.0000 </r>
       <r>  -18.1602    1.0000 </r>
       <r>  -17.9219    1.0000 </r>
       <r>  -14.5678    1.0000 </r>
       <r>  -14.2672    1.0000 </r>
       <r>  -12.5139    1.0000 </r>
       <r>  -10.8164    1.0000 </r>
       <r>  -10.5615    1.0000 </r>
       <r>   -9.9463    1.0000 </r>
       <r>   -9.5485    1.0000 </r>
       <r>   -8.6647    1.0000 </r>
       <r>   -7.9413    1.0000 </r>
       <r>   -7.5641    1.0000 </r>
       <r>   -6.0221    1.0000 </r>
       <r>   -5.8361    1.0000 </r>
       <r>   -0.8655    0.0000 </r>
       <r>   -0.7551    0.0000 </r>
       <r>   -0.4309    0.0000 </r>
       <r>    0.7052    0.0000 </r>
       <r>    0.8263    0.0000 </r>
       <r>    0.8873    0.0000 </r>
       <r>    0.9213    0.0000 </r>
       <r>    0.9899    0.0000 </r>
       <r>    1.4498    0.0000 </r>
      </set>
     </set>
    </set>
   </array>
  </eigenvalues>
  <separator name="orbital magnetization" >
   <v name="MAGDIPOLOUT">      0.00000000      0.00000000      0.00000000</v>
  </separator>
  <dos>
   <i name="efermi">     -5.58982494 </i>
   <total>
    <array>
     <dimension dim="1">gridpoints</dimension>
     <dimension dim="2">spin</dimension>
     <field>energy</field>
     <field>total</field>
     <field>integrated</field>
     <set>
      <set comment="spin 1">
       <r>   -21.9259     0.0000     0.0000 </r>
       <r>   -21.8442     0.0000     0.0000 </r>
       <r>   -21.7626     0.0000     0.0000 </r>
       <r>   -21.6810     0.0000     0.0000 </r>
       <r>   -21.5993     0.0000     0.0000 </r>
       <r>   -21.5177     0.0000     0.0000 </r>
       <r>   -21.4361     0.0000     0.0000 </r>
       <r>   -21.3544     0.0000     0.0000 </r>
       <r>   -21.2728     0.0000     0.0000 </r>
       <r>   -21.1912     0.0000     0.0000 </r>
       <r>   -21.1096     0.0000     0.0000 </r>
       <r>   -21.0279     0.0000     0.0000 </r>
       <r>   -20.9463     0.0019     0.0002 </r>
       <r>   -20.8647     1.7348     0.1418 </r>
       <r>   -20.7830    17.8501     1.5989 </r>
       <r>   -20.7014     4.8942     1.9984 </r>
       <r>   -20.6198     0.0201     2.0000 </r>
       <r>   -20.5382     0.0000     2.0000 </r>
       <r>   -20.4565     0.0000     2.0000 </r>
       <r>   -20.3749     0.0000     2.0000 </r>
       <r>   -20.2933     0.0000     2.0000 </r>
       <r>   -20.2116     0.0000     2.0000 </r>
       <r>   -20.1300     0.0000     2.0000 </r>
       <r>   -20.0484     0.0000     2.0000 </r>
       <r>   -19.9668     0.0000     2.0000 </r>
       <r>   -19.8851     0.0000     2.0000 </r>
       <r>   -19.8035     0.0000     2.0000 </r>
       <r>   -19.7219     0.0000     2.0000 </r>
       <r>   -19.6402     0.0000     2.0000 </r>
       <r>   -19.5586     0.0000     2.0000 </r>
       <r>   -19.4770     0.0000     2.0000 </r>
       <r>   -19.3953     0.0000     2.0000 </r>
       <r>   -19.3137     0.0000     2.0000 </r>
       <r>   -19.2321     0.0000     2.0000 </r>
       <r>   -19.1505     0.0000     2.0000 </r>
       <r>   -19.0688     0.0000     2.0000 </r>
       <r>   -18.9872     0.0000     2.0000 </r>
       <r>   -18.9056     0.0000     2.0000 </r>
       <r>   -18.8239     0.0000     2.0000 </r>
       <r>   -18.7423     0.0000     2.0000 </r>
       <r>   -18.6607     0.0000     2.0000 </r>
       <r>   -18.5791     0.0000     2.0000 </r>
       <r>   -18.4974     0.0000     2.0000 </r>
       <r>   -18.4158     0.0000     2.0000 </r>
       <r>   -18.3342     0.0000     2.0000 </r>
       <r>   -18.2525     0.1103     2.0090 </r>
       <r>   -18.1709     9.2216     2.7618 </r>
       <r>   -18.0893    14.6192     3.9551 </r>
       <r>   -18.0077     0.7364     4.0152 </r>
       <r>   -17.9260    10.9140     4.9061 </r>
       <r>   -17.8444    13.0520     5.9715 </r>
       <r>   -17.7628     0.3486     6.0000 </r>
       <r>   -17.6811     0.0001     6.0000 </r>
       <r>   -17.5995     0.0000     6.0000 </r>
       <r>   -17.5179     0.0000     6.0000 </r>
       <r>   -17.4363     0.0000     6.0000 </r>
       <r>   -17.3546     0.0000     6.0000 </r>
       <r>   -17.2730     0.0000     6.0000 </r>
       <r>   -17.1914     0.0000     6.0000 </r>
       <r>   -17.1097     0.0000     6.0000 </r>
       <r>   -17.0281     0.0000     6.0000 </r>
       <r>   -16.9465     0.0000     6.0000 </r>
       <r>   -16.8648     0.0000     6.0000 </r>
       <r>   -16.7832     0.0000     6.0000 </r>
       <r>   -16.7016     0.0000     6.0000 </r>
       <r>   -16.6200     0.0000     6.0000 </r>
       <r>   -16.5383     0.0000     6.0000 </r>
       <r>   -16.4567     0.0000     6.0000 </r>
       <r>   -16.3751     0.0000     6.0000 </r>
       <r>   -16.2934     0.0000     6.0000 </r>
       <r>   -16.2118     0.0000     6.0000 </r>
       <r>   -16.1302     0.0000     6.0000 </r>
       <r>   -16.0486     0.0000     6.0000 </r>
       <r>   -15.9669     0.0000     6.0000 </r>
       <r>   -15.8853     0.0000     6.0000 </r>
       <r>   -15.8037     0.0000     6.0000 </r>
       <r>   -15.7220     0.0000     6.0000 </r>
       <r>   -15.6404     0.0000     6.0000 </r>
       <r>   -15.5588     0.0000     6.0000 </r>
       <r>   -15.4772     0.0000     6.0000 </r>
       <r>   -15.3955     0.0000     6.0000 </r>
       <r>   -15.3139     0.0000     6.0000 </r>
       <r>   -15.2323     0.0000     6.0000 </r>
       <r>   -15.1506     0.0000     6.0000 </r>
       <r>   -15.0690     0.0000     6.0000 </r>
       <r>   -14.9874     0.0000     6.0000 </r>
       <r>   -14.9057     0.0000     6.0000 </r>
       <r>   -14.8241     0.0000     6.0000 </r>
       <r>   -14.7425     0.0000     6.0000 </r>
       <r>   -14.6609     0.1036     6.0085 </r>
       <r>   -14.5792     9.0311     6.7457 </r>
       <r>   -14.4976    14.7880     7.9528 </r>
       <r>   -14.4160     0.5784     8.0000 </r>
       <r>   -14.3343     0.7066     8.0577 </r>
       <r>   -14.2527    15.4486     9.3187 </r>
       <r>   -14.1711     8.2657     9.9935 </r>
       <r>   -14.0895     0.0801    10.0000 </r>
       <r>   -14.0078     0.0000    10.0000 </r>
       <r>   -13.9262     0.0000    10.0000 </r>
       <r>   -13.8446     0.0000    10.0000 </r>
       <r>   -13.7629     0.0000    10.0000 </r>
       <r>   -13.6813     0.0000    10.0000 </r>
       <r>   -13.5997     0.0000    10.0000 </r>
       <r>   -13.5181     0.0000    10.0000 </r>
       <r>   -13.4364     0.0000    10.0000 </r>
       <r>   -13.3548     0.0000    10.0000 </r>
       <r>   -13.2732     0.0000    10.0000 </r>
       <r>   -13.1915     0.0000    10.0000 </r>
       <r>   -13.1099     0.0000    10.0000 </r>
       <r>   -13.0283     0.0000    10.0000 </r>
       <r>   -12.9466     0.0000    10.0000 </r>
       <r>   -12.8650     0.0000    10.0000 </r>
       <r>   -12.7834     0.0000    10.0000 </r>
       <r>   -12.7018     0.0000    10.0000 </r>
       <r>   -12.6201     0.0326    10.0027 </r>
       <r>   -12.5385     5.9328    10.4870 </r>
       <r>   -12.4569    17.2297    11.8934 </r>
       <r>   -12.3752     1.3049    11.9999 </r>
       <r>   -12.2936     0.0011    12.0000 </r>
       <r>   -12.2120     0.0000    12.0000 </r>
       <r>   -12.1304     0.0000    12.0000 </r>
       <r>   -12.0487     0.0000    12.0000 </r>
       <r>   -11.9671     0.0000    12.0000 </r>
       <r>   -11.8855     0.0000    12.0000 </r>
       <r>   -11.8038     0.0000    12.0000 </r>
       <r>   -11.7222     0.0000    12.0000 </r>
       <r>   -11.6406     0.0000    12.0000 </r>
       <r>   -11.5590     0.0000    12.0000 </r>
       <r>   -11.4773     0.0000    12.0000 </r>
       <r>   -11.3957     0.0000    12.0000 </r>
       <r>   -11.3141     0.0000    12.0000 </r>
       <r>   -11.2324     0.0000    12.0000 </r>
       <r>   -11.1508     0.0000    12.0000 </r>
       <r>   -11.0692     0.0000    12.0000 </r>
       <r>   -10.9876     0.0000    12.0000 </r>
       <r>   -10.9059     0.1394    12.0114 </r>
       <r>   -10.8243     9.9599    12.8244 </r>
       <r>   -10.7427    13.9498    13.9631 </r>
       <r>   -10.6610     0.5118    14.0049 </r>
       <r>   -10.5794     7.4558    14.6135 </r>
       <r>   -10.4978    16.1123    15.9287 </r>
       <r>   -10.4161     0.8727    16.0000 </r>
       <r>   -10.3345     0.0005    16.0000 </r>
       <r>   -10.2529     0.0000    16.0000 </r>
       <r>   -10.1713     0.0000    16.0000 </r>
       <r>   -10.0896     0.0006    16.0001 </r>
       <r>   -10.0080     0.9891    16.0808 </r>
       <r>    -9.9264    16.4838    17.4263 </r>
       <r>    -9.8447     6.9775    17.9959 </r>
       <r>    -9.7631     0.0500    18.0000 </r>
       <r>    -9.6815     0.0021    18.0002 </r>
       <r>    -9.5999     1.7884    18.1462 </r>
       <r>    -9.5182    17.9055    19.6078 </r>
       <r>    -9.4366     4.7861    19.9984 </r>
       <r>    -9.3550     0.0190    20.0000 </r>
       <r>    -9.2733     0.0000    20.0000 </r>
       <r>    -9.1917     0.0000    20.0000 </r>
       <r>    -9.1101     0.0000    20.0000 </r>
       <r>    -9.0285     0.0000    20.0000 </r>
       <r>    -8.9468     0.0000    20.0000 </r>
       <r>    -8.8652     0.0000    20.0000 </r>
       <r>    -8.7836     0.0095    20.0008 </r>
       <r>    -8.7019     3.5783    20.2929 </r>
       <r>    -8.6203    18.3558    21.7912 </r>
       <r>    -8.5387     2.5530    21.9996 </r>
       <r>    -8.4570     0.0044    22.0000 </r>
       <r>    -8.3754     0.0000    22.0000 </r>
       <r>    -8.2938     0.0000    22.0000 </r>
       <r>    -8.2122     0.0000    22.0000 </r>
       <r>    -8.1305     0.0000    22.0000 </r>
       <r>    -8.0489     0.0285    22.0023 </r>
       <r>    -7.9673     5.6282    22.4618 </r>
       <r>    -7.8856    17.4263    23.8842 </r>
       <r>    -7.8040     1.4168    23.9999 </r>
       <r>    -7.7224     0.0014    24.0000 </r>
       <r>    -7.6408     0.3689    24.0301 </r>
       <r>    -7.5591    13.2483    25.1116 </r>
       <r>    -7.4775    10.7084    25.9857 </r>
       <r>    -7.3959     0.1754    26.0000 </r>
       <r>    -7.3142     0.0000    26.0000 </r>
       <r>    -7.2326     0.0000    26.0000 </r>
       <r>    -7.1510     0.0000    26.0000 </r>
       <r>    -7.0694     0.0000    26.0000 </r>
       <r>    -6.9877     0.0000    26.0000 </r>
       <r>    -6.9061     0.0000    26.0000 </r>
       <r>    -6.8245     0.0000    26.0000 </r>
       <r>    -6.7428     0.0000    26.0000 </r>
       <r>    -6.6612     0.0000    26.0000 </r>
       <r>    -6.5796     0.0000    26.0000 </r>
       <r>    -6.4979     0.0000    26.0000 </r>
       <r>    -6.4163     0.0000    26.0000 </r>
       <r>    -6.3347     0.0000    26.0000 </r>
       <r>    -6.2531     0.0000    26.0000 </r>
       <r>    -6.1714     0.0003    26.0000 </r>
       <r>    -6.0898     0.6793    26.0555 </r>
       <r>    -6.0082    15.3220    27.3062 </r>
       <r>    -5.9265     8.5438    28.0036 </r>
       <r>    -5.8449     9.7897    28.8028 </r>
       <r>    -5.7633    14.1831    29.9605 </r>
       <r>    -5.6817     0.4836    30.0000 </r>
       <r>    -5.6000     0.0002    30.0000 </r>
       <r>    -5.5184     0.0000    30.0000 </r>
       <r>    -5.4368     0.0000    30.0000 </r>
       <r>    -5.3551     0.0000    30.0000 </r>
       <r>    -5.2735     0.0000    30.0000 </r>
       <r>    -5.1919     0.0000    30.0000 </r>
       <r>    -5.1103     0.0000    30.0000 </r>
       <r>    -5.0286     0.0000    30.0000 </r>
       <r>    -4.9470     0.0000    30.0000 </r>
       <r>    -4.8654     0.0000    30.0000 </r>
       <r>    -4.7837     0.0000    30.0000 </r>
       <r>    -4.7021     0.0000    30.0000 </r>
       <r>    -4.6205     0.0000    30.0000 </r>
       <r>    -4.5389     0.0000    30.0000 </r>
       <r>    -4.4572     0.0000    30.0000 </r>
       <r>    -4.3756     0.0000    30.0000 </r>
       <r>    -4.2940     0.0000    30.0000 </r>
       <r>    -4.2123     0.0000    30.0000 </r>
       <r>    -4.1307     0.0000    30.0000 </r>
       <r>    -4.0491     0.0000    30.0000 </r>
       <r>    -3.9674     0.0000    30.0000 </r>
       <r>    -3.8858     0.0000    30.0000 </r>
       <r>    -3.8042     0.0000    30.0000 </r>
       <r>    -3.7226     0.0000    30.0000 </r>
       <r>    -3.6409     0.0000    30.0000 </r>
       <r>    -3.5593     0.0000    30.0000 </r>
       <r>    -3.4777     0.0000    30.0000 </r>
       <r>    -3.3960     0.0000    30.0000 </r>
       <r>    -3.3144     0.0000    30.0000 </r>
       <r>    -3.2328     0.0000    30.0000 </r>
       <r>    -3.1512     0.0000    30.0000 </r>
       <r>    -3.0695     0.0000    30.0000 </r>
       <r>    -2.9879     0.0000    30.0000 </r>
       <r>    -2.9063     0.0000    30.0000 </r>
       <r>    -2.8246     0.0000    30.0000 </r>
       <r>    -2.7430     0.0000    30.0000 </r>
       <r>    -2.6614     0.0000    30.0000 </r>
       <r>    -2.5798     0.0000    30.0000 </r>
       <r>    -2.4981     0.0000    30.0000 </r>
       <r>    -2.4165     0.0000    30.0000 </r>
       <r>    -2.3349     0.0000    30.0000 </r>
       <r>    -2.2532     0.0000    30.0000 </r>
       <r>    -2.1716     0.0000    30.0000 </r>
       <r>    -2.0900     0.0000    30.0000 </r>
       <r>    -2.0083     0.0000    30.0000 </r>
       <r>    -1.9267     0.0000    30.0000 </r>
       <r>    -1.8451     0.0000    30.0000 </r>
       <r>    -1.7635     0.0000    30.0000 </r>
       <r>    -1.6818     0.0000    30.0000 </r>
       <r>    -1.6002     0.0000    30.0000 </r>
       <r>    -1.5186     0.0000    30.0000 </r>
       <r>    -1.4369     0.0000    30.0000 </r>
       <r>    -1.3553     0.0000    30.0000 </r>
       <r>    -1.2737     0.0000    30.0000 </r>
       <r>    -1.1921     0.0000    30.0000 </r>
       <r>    -1.1104     0.0000    30.0000 </r>
       <r>    -1.0288     0.0000    30.0000 </r>
       <r>    -0.9472     0.2556    30.0209 </r>
       <r>    -0.8655    12.0010    31.0005 </r>
       <r>    -0.7839    17.0647    32.3935 </r>
       <r>    -0.7023    18.0211    33.8645 </r>
       <r>    -0.6207     1.6580    33.9999 </r>
       <r>    -0.5390     0.0290    34.0022 </r>
       <r>    -0.4574     5.5301    34.4536 </r>
       <r>    -0.3758    17.4873    35.8811 </r>
       <r>    -0.2941     1.4551    35.9999 </r>
       <r>    -0.2125     0.0013    36.0000 </r>
       <r>    -0.1309     0.0000    36.0000 </r>
       <r>    -0.0492     0.0000    36.0000 </r>
       <r>     0.0324     0.0000    36.0000 </r>
       <r>     0.1140     0.0000    36.0000 </r>
       <r>     0.1956     0.0000    36.0000 </r>
       <r>     0.2773     0.0000    36.0000 </r>
       <r>     0.3589     0.0000    36.0000 </r>
       <r>     0.4405     0.0000    36.0000 </r>
       <r>     0.5222     0.0000    36.0000 </r>
       <r>     0.6038     0.0506    36.0041 </r>
       <r>     0.6854     7.0094    36.5763 </r>
       <r>     0.7670    17.6178    38.0144 </r>
       <r>     0.8487    21.7220    39.7876 </r>
       <r>     0.9303    40.1472    43.0648 </r>
       <r>     1.0119    29.3049    45.4569 </r>
       <r>     1.0936     6.6123    45.9966 </r>
       <r>     1.1752     0.0411    46.0000 </r>
       <r>     1.2568     0.0000    46.0000 </r>
       <r>     1.3384     0.0201    46.0016 </r>
       <r>     1.4201     4.8942    46.4011 </r>
       <r>     1.5017    17.8501    47.8582 </r>
       <r>     1.5833     1.7348    47.9998 </r>
       <r>     1.6650     0.0019    48.0000 </r>
       <r>     1.7466     0.0000    48.0000 </r>
       <r>     1.8282     0.0000    48.0000 </r>
       <r>     1.9099     0.0000    48.0000 </r>
       <r>     1.9915     0.0000    48.0000 </r>
       <r>     2.0731     0.0000    48.0000 </r>
       <r>     2.1547     0.0000    48.0000 </r>
       <r>     2.2364     0.0000    48.0000 </r>
       <r>     2.3180     0.0000    48.0000 </r>
       <r>     2.3996     0.0000    48.0000 </r>
       <r>     2.4813     0.0000    48.0000 </r>
       <r>     2.5629     0.0000    48.0000 </r>
      </set>
     </set>
    </array>
   </total>
  </dos>
 </calculation>
 <structure name="finalpos" >
  <crystal>
   <varray name="basis" >
    <v>      10.58354422       0.00000000       0.00000000 </v>
    <v>       0.00000000      10.58354422       0.00000000 </v>
    <v>       0.00000000       0.00000000      10.58354422 </v>
   </varray>
   <i name="volume">   1185.47769178 </i>
   <varray name="rec_basis" >
    <v>       0.09448631       0.00000000       0.00000000 </v>
    <v>       0.00000000       0.09448631       0.00000000 </v>
    <v>       0.00000000       0.00000000       0.09448631 </v>
   </varray>
  </crystal>
  <varray name="positions" >
   <v>       0.50031135       0.63119810       0.50089840 </v>
   <v>       0.38151085       0.56568885       0.50004515 </v>
   <v>       0.38657505       0.43929585       0.49952670 </v>
   <v>       0.49989690       0.37011535       0.50002440 </v>
   <v>       0.61429665       0.43311200       0.50176975 </v>
   <v>       0.61526385       0.56727170       0.49811840 </v>
   <v>       0.49956090       0.73596510       0.50134435 </v>
   <v>       0.29567535       0.62174020       0.49997385 </v>
   <v>       0.30556900       0.38137935       0.49988490 </v>
   <v>       0.50762185       0.26283305       0.49879445 </v>
   <v>       0.69538850       0.37348615       0.50199100 </v>
   <v>       0.69832965       0.61791425       0.49762860 </v>
  </varray>
 </structure>
</modeling>
