<?xml version="1.0" encoding="ISO-8859-1"?>
<modeling>
 <generator>
  <i name="program" type="string">vasp </i>
  <i name="version" type="string">6.2.0  </i>
  <i name="subversion" type="string">18Jan21 (build Mar 25 2021 14:28:09) complex                          parallel </i>
  <i name="platform" type="string">LinuxGNU </i>
  <i name="date" type="string">2021 12 20 </i>
  <i name="time" type="string">09:53:04 </i>
 </generator>
 <incar>
  <i type="string" name="SYSTEM">benzene</i>
  <i type="int" name="ISTART">     0</i>
  <i type="string" name="PREC">Accurate</i>
  <i type="string" name="ALGO">Normal</i>
  <i type="int" name="NELM">   200</i>
  <i type="int" name="IBRION">    -1</i>
  <i name="EDIFF">      0.00000100</i>
  <i type="int" name="NSW">     0</i>
  <i name="ENCUT">    600.00000000</i>
  <i type="logical" name="LREAL"> F  </i>
  <i type="int" name="ISMEAR">     0</i>
  <i name="SIGMA">      0.05000000</i>
  <i type="logical" name="LWAVE"> F  </i>
  <i type="logical" name="LCHARG"> T  </i>
  <i type="string" name="GGA">PE</i>
 </incar>
 <primitive_cell>
  <structure name="primitive_cell" >
   <crystal>
    <varray name="basis" >
     <v>      10.58354422       0.00000000       0.00000000 </v>
     <v>       0.00000000      10.58354422       0.00000000 </v>
     <v>       0.00000000       0.00000000      10.58354422 </v>
    </varray>
    <i name="volume">   1185.47769178 </i>
    <varray name="rec_basis" >
     <v>       0.09448631       0.00000000       0.00000000 </v>
     <v>       0.00000000       0.09448631       0.00000000 </v>
     <v>       0.00000000       0.00000000       0.09448631 </v>
    </varray>
   </crystal>
   <varray name="positions" >
    <v>       0.50052650       0.63213420       0.50385125 </v>
    <v>       0.38533900       0.56881410       0.50079935 </v>
    <v>       0.38704665       0.43561230       0.50766890 </v>
    <v>       0.49855750       0.36642595       0.49526585 </v>
    <v>       0.61369110       0.43686700       0.50157045 </v>
    <v>       0.61765615       0.56689760       0.50906745 </v>
    <v>       0.50683485       0.73840765       0.49099470 </v>
    <v>       0.29029645       0.60687695       0.49681685 </v>
    <v>       0.29863195       0.38097135       0.50206075 </v>
    <v>       0.49800935       0.26585530       0.49430975 </v>
    <v>       0.69698355       0.38975980       0.49784280 </v>
    <v>       0.70642715       0.61137780       0.49975180 </v>
   </varray>
  </structure>
  <varray name="primitive_index" >
   <v type="int" >        1 </v>
   <v type="int" >        2 </v>
   <v type="int" >        3 </v>
   <v type="int" >        4 </v>
   <v type="int" >        5 </v>
   <v type="int" >        6 </v>
   <v type="int" >        7 </v>
   <v type="int" >        8 </v>
   <v type="int" >        9 </v>
   <v type="int" >       10 </v>
   <v type="int" >       11 </v>
   <v type="int" >       12 </v>
  </varray>
 </primitive_cell>
 <kpoints>
  <generation param="Gamma">
   <v type="int" name="divisions">       1        1        1 </v>
   <v name="usershift">      0.00000000       0.00000000       0.00000000 </v>
   <v name="genvec1">      1.00000000       0.00000000       0.00000000 </v>
   <v name="genvec2">      0.00000000       1.00000000       0.00000000 </v>
   <v name="genvec3">      0.00000000       0.00000000       1.00000000 </v>
   <v name="shift">      0.00000000       0.00000000       0.00000000 </v>
  </generation>
  <varray name="kpointlist" >
   <v>       0.00000000       0.00000000       0.00000000 </v>
  </varray>
  <varray name="weights" >
   <v>       1.00000000 </v>
  </varray>
 </kpoints>
 <parameters>
  <separator name="general" >
   <i type="string" name="SYSTEM">benzene</i>
   <i type="logical" name="LCOMPAT"> F  </i>
  </separator>
  <separator name="electronic" >
   <i type="string" name="PREC">accura</i>
   <i name="ENMAX">    600.00000000</i>
   <i name="ENAUG">    644.87300000</i>
   <i name="EDIFF">      0.00000100</i>
   <i type="int" name="IALGO">    38</i>
   <i type="int" name="IWAVPR">    10</i>
   <i type="int" name="NBANDS">    24</i>
   <i type="int" name="NBANDSLOW">    -1</i>
   <i type="int" name="NBANDSHIGH">    -1</i>
   <i name="NELECT">     30.00000000</i>
   <i type="int" name="TURBO">     0</i>
   <i type="int" name="IRESTART">     0</i>
   <i type="int" name="NREBOOT">     0</i>
   <i type="int" name="NMIN">     0</i>
   <i name="EREF">      0.00000000</i>
   <separator name="electronic smearing" >
    <i type="int" name="ISMEAR">     0</i>
    <i name="SIGMA">      0.05000000</i>
    <i name="KSPACING">      0.50000000</i>
    <i type="logical" name="KGAMMA"> T  </i>
    <i type="logical" name="KBLOWUP"> T  </i>
   </separator>
   <separator name="electronic projectors" >
    <i type="logical" name="LREAL"> F  </i>
    <v name="ROPT">      0.00000000      0.00000000</v>
    <i type="int" name="LMAXPAW">  -100</i>
    <i type="int" name="LMAXMIX">     2</i>
    <i type="logical" name="NLSPLINE"> F  </i>
   </separator>
   <separator name="electronic startup" >
    <i type="int" name="ISTART">     0</i>
    <i type="int" name="ICHARG">     2</i>
    <i type="int" name="INIWAV">     1</i>
   </separator>
   <separator name="electronic spin" >
    <i type="int" name="ISPIN">     1</i>
    <i type="logical" name="LNONCOLLINEAR"> F  </i>
    <v name="MAGMOM">      1.00000000      1.00000000      1.00000000      1.00000000      1.00000000      1.00000000      1.00000000      1.00000000      1.00000000      1.00000000      1.00000000      1.00000000</v>
    <i name="NUPDOWN">     -1.00000000</i>
    <i type="logical" name="LSORBIT"> F  </i>
    <v name="SAXIS">      0.00000000      0.00000000      1.00000000</v>
    <i type="logical" name="LSPIRAL"> F  </i>
    <v name="QSPIRAL">      0.00000000      0.00000000      0.00000000</v>
    <i type="logical" name="LZEROZ"> F  </i>
   </separator>
   <separator name="electronic exchange-correlation" >
    <i type="logical" name="LASPH"> F  </i>
    <i type="logical" name="LMETAGGA"> F  </i>
   </separator>
   <separator name="electronic convergence" >
    <i type="int" name="NELM">   200</i>
    <i type="int" name="NELMDL">    -5</i>
    <i type="int" name="NELMIN">     2</i>
    <i name="ENINI">    600.00000000</i>
    <separator name="electronic convergence detail" >
     <i type="logical" name="LDIAG"> T  </i>
     <i type="logical" name="LSUBROT"> F  </i>
     <i name="WEIMIN">      0.00000000</i>
     <i name="EBREAK">      0.00000001</i>
     <i name="DEPER">      0.30000000</i>
     <i type="int" name="NRMM">     4</i>
     <i name="TIME">      0.40000000</i>
    </separator>
   </separator>
   <separator name="electronic mixer" >
    <i name="AMIX">      0.40000000</i>
    <i name="BMIX">      1.00000000</i>
    <i name="AMIN">      0.10000000</i>
    <i name="AMIX_MAG">      1.60000000</i>
    <i name="BMIX_MAG">      1.00000000</i>
    <separator name="electronic mixer details" >
     <i type="int" name="IMIX">     4</i>
     <i type="logical" name="MIXFIRST"> F  </i>
     <i type="int" name="MAXMIX">   -45</i>
     <i name="WC">    100.00000000</i>
     <i type="int" name="INIMIX">     1</i>
     <i type="int" name="MIXPRE">     1</i>
     <i type="int" name="MREMOVE">     5</i>
    </separator>
   </separator>
   <separator name="electronic dipolcorrection" >
    <i type="logical" name="LDIPOL"> F  </i>
    <i type="logical" name="LMONO"> F  </i>
    <i type="int" name="IDIPOL">     0</i>
    <i name="EPSILON">      1.00000000</i>
    <v name="DIPOL">   -100.00000000   -100.00000000   -100.00000000</v>
    <i name="EFIELD">      0.00000000</i>
   </separator>
  </separator>
  <separator name="grids" >
   <i type="int" name="NGX">    90</i>
   <i type="int" name="NGY">    90</i>
   <i type="int" name="NGZ">    90</i>
   <i type="int" name="NGXF">   180</i>
   <i type="int" name="NGYF">   180</i>
   <i type="int" name="NGZF">   180</i>
   <i type="logical" name="ADDGRID"> F  </i>
  </separator>
  <separator name="ionic" >
   <i type="int" name="NSW">     0</i>
   <i type="int" name="IBRION">    -1</i>
   <i type="int" name="MDALGO">     0</i>
   <i type="int" name="ISIF">     2</i>
   <i name="PSTRESS">      0.00000000</i>
   <i name="EDIFFG">      0.00001000</i>
   <i type="int" name="NFREE">     0</i>
   <i name="POTIM">      0.50000000</i>
   <i name="SMASS">     -3.00000000</i>
   <i name="SCALEE">      1.00000000</i>
  </separator>
  <separator name="ionic md" >
   <i name="TEBEG">      0.00010000</i>
   <i name="TEEND">      0.00010000</i>
   <i type="int" name="NBLOCK">     1</i>
   <i type="int" name="KBLOCK">     1</i>
   <i type="int" name="NPACO">   256</i>
   <i name="APACO">     16.00000000</i>
  </separator>
  <separator name="symmetry" >
   <i type="int" name="ISYM">     2</i>
   <i name="SYMPREC">      0.00001000</i>
  </separator>
  <separator name="dos" >
   <i type="int" name="LORBIT">     0</i>
   <v name="RWIGS">     -1.00000000     -1.00000000</v>
   <i type="int" name="NEDOS">   301</i>
   <i name="EMIN">     10.00000000</i>
   <i name="EMAX">    -10.00000000</i>
   <i name="EFERMI">      0.00000000</i>
  </separator>
  <separator name="writing" >
   <i type="int" name="NWRITE">     2</i>
   <i type="logical" name="LWAVE"> F  </i>
   <i type="logical" name="LDOWNSAMPLE"> F  </i>
   <i type="logical" name="LCHARG"> T  </i>
   <i type="logical" name="LPARD"> F  </i>
   <i type="logical" name="LVTOT"> F  </i>
   <i type="logical" name="LVHAR"> F  </i>
   <i type="logical" name="LELF"> F  </i>
   <i type="logical" name="LOPTICS"> F  </i>
   <v name="STM">      0.00000000      0.00000000      0.00000000      0.00000000      0.00000000      0.00000000      0.00000000</v>
  </separator>
  <separator name="performance" >
   <i type="int" name="NPAR">     4</i>
   <i type="int" name="NSIM">     4</i>
   <i type="int" name="NBLK">    -1</i>
   <i type="logical" name="LPLANE"> T  </i>
   <i type="logical" name="LSCALAPACK"> T  </i>
   <i type="logical" name="LSCAAWARE"> F  </i>
   <i type="logical" name="LSCALU"> F  </i>
   <i type="logical" name="LASYNC"> F  </i>
   <i type="logical" name="LORBITALREAL"> F  </i>
  </separator>
  <separator name="miscellaneous" >
   <i type="int" name="IDIOT">     3</i>
   <i type="int" name="PHON_NSTRUCT">    -1</i>
   <i type="logical" name="LMUSIC"> F  </i>
   <v name="POMASS">     12.01100000      1.00000000</v>
   <v name="DARWINR">      0.00000000      0.00000000</v>
   <v name="DARWINV">      1.00000000      1.00000000</v>
   <i type="logical" name="LCORR"> T  </i>
  </separator>
  <i type="logical" name="GGA_COMPAT"> T  </i>
  <i type="logical" name="LBERRY"> F  </i>
  <i type="int" name="ICORELEVEL">     0</i>
  <i type="logical" name="LDAU"> F  </i>
  <i type="int" name="I_CONSTRAINED_M">     0</i>
  <separator name="electronic exchange-correlation" >
   <i type="string" name="GGA">PE</i>
   <i type="int" name="VOSKOWN">     0</i>
   <i type="logical" name="LHFCALC"> F  </i>
   <i type="string" name="PRECFOCK"></i>
   <i type="logical" name="LSYMGRAD"> F  </i>
   <i type="logical" name="LHFONE"> F  </i>
   <i type="logical" name="LRHFCALC"> F  </i>
   <i type="logical" name="LTHOMAS"> F  </i>
   <i type="logical" name="LMODELHF"> F  </i>
   <i type="logical" name="LFOCKACE"> F  </i>
   <i name="ENCUT4O">     -1.00000000</i>
   <i type="int" name="EXXOEP">     0</i>
   <i type="int" name="FOURORBIT">     0</i>
   <i name="AEXX">      0.00000000</i>
   <i name="HFALPHA">      0.00000000</i>
   <i name="MCALPHA">      0.00000000</i>
   <i name="ALDAX">      1.00000000</i>
   <i name="AGGAX">      1.00000000</i>
   <i name="ALDAC">      1.00000000</i>
   <i name="AGGAC">      1.00000000</i>
   <i type="int" name="NKREDX">     1</i>
   <i type="int" name="NKREDY">     1</i>
   <i type="int" name="NKREDZ">     1</i>
   <i type="logical" name="SHIFTRED"> F  </i>
   <i type="logical" name="ODDONLY"> F  </i>
   <i type="logical" name="EVENONLY"> F  </i>
   <i type="int" name="LMAXFOCK">     0</i>
   <i type="int" name="NMAXFOCKAE">     0</i>
   <i type="logical" name="LFOCKAEDFT"> F  </i>
   <i name="HFSCREEN">      0.00000000</i>
   <i name="HFSCREENC">      0.00000000</i>
   <i type="int" name="NBANDSGWLOW">     0</i>
  </separator>
  <separator name="vdW DFT" >
   <i type="logical" name="LUSE_VDW"> F  </i>
   <i name="Zab_VDW">     -0.84910000</i>
   <i name="PARAM1">      0.12340000</i>
   <i name="PARAM2">      1.00000000</i>
   <i name="PARAM3">      0.00000000</i>
  </separator>
  <separator name="model GW" >
   <i type="int" name="MODEL_GW">     0</i>
   <i name="MODEL_EPS0">     59.27388459</i>
   <i name="MODEL_ALPHA">      1.00000000</i>
  </separator>
  <separator name="linear response parameters" >
   <i type="logical" name="LEPSILON"> F  </i>
   <i type="logical" name="LRPA"> F  </i>
   <i type="logical" name="LNABLA"> F  </i>
   <i type="logical" name="LVEL"> F  </i>
   <i type="int" name="KINTER">     0</i>
   <i name="CSHIFT">      0.10000000</i>
   <i name="OMEGAMAX">     -1.00000000</i>
   <i name="DEG_THRESHOLD">      0.00200000</i>
   <i name="RTIME">     -0.10000000</i>
   <i name="WPLASMAI">      0.00000000</i>
   <v name="DFIELD">      0.00000000      0.00000000      0.00000000</v>
   <v name="WPLASMA">      0.00000000      0.00000000      0.00000000      0.00000000      0.00000000      0.00000000      0.00000000      0.00000000      0.00000000</v>
  </separator>
  <separator name="orbital magnetization" >
   <i type="logical" name="NUCIND"> F  </i>
   <v name="MAGPOS">      0.00000000      0.00000000      0.00000000</v>
   <i type="logical" name="LNICSALL"> T  </i>
   <i type="logical" name="ORBITALMAG"> F  </i>
   <i type="logical" name="LMAGBLOCH"> F  </i>
   <i type="logical" name="LCHIMAG"> F  </i>
   <i type="logical" name="LGAUGE"> T  </i>
   <i type="int" name="MAGATOM">     0</i>
   <v name="MAGDIPOL">      0.00000000      0.00000000      0.00000000</v>
   <v name="AVECCONST">      0.00000000      0.00000000      0.00000000</v>
  </separator>
  <separator name="response functions" >
   <i type="logical" name="LFINITE_TEMPERATURE"> F  </i>
   <i type="logical" name="LADDER"> F  </i>
   <i type="logical" name="LRPAFORCE"> F  </i>
   <i type="logical" name="LFXC"> F  </i>
   <i type="logical" name="LHARTREE"> T  </i>
   <i type="int" name="IBSE">     0</i>
   <v type="int" name="KPOINT">    -1     0     0     0</v>
   <i type="logical" name="LTCTC"> F  </i>
   <i type="logical" name="LTCTE"> F  </i>
   <i type="logical" name="LTETE"> F  </i>
   <i type="logical" name="LTRIPLET"> F  </i>
   <i type="logical" name="LFXCEPS"> F  </i>
   <i type="logical" name="LFXHEG"> F  </i>
   <i type="int" name="NATURALO">     2</i>
   <i type="logical" name="LHOLEGF"> F  </i>
   <i type="logical" name="L2ORDER"> F  </i>
   <i type="logical" name="LDMP1"> F  </i>
   <i type="logical" name="LMP2LT"> F  </i>
   <i type="logical" name="LSMP2LT"> F  </i>
   <i type="logical" name="LGWLF"> F  </i>
   <i name="ENCUTGW">     -2.00000000</i>
   <i name="ENCUTGWSOFT">     -2.00000000</i>
   <i name="ENCUTLF">     -1.00000000</i>
   <i type="logical" name="LESF_SPLINES"> F  </i>
   <i type="int" name="LMAXMP2">    -1</i>
   <i name="SCISSOR">      0.00000000</i>
   <i type="int" name="NOMEGA">     0</i>
   <i type="int" name="NOMEGAR">     0</i>
   <i type="int" name="NBANDSGW">    -1</i>
   <i type="int" name="NBANDSO">    -1</i>
   <i type="int" name="NBANDSV">    -1</i>
   <i type="int" name="NELM">   200</i>
   <i type="int" name="NELMHF">     1</i>
   <i type="int" name="DIM">     3</i>
   <i type="int" name="IESPILON">     4</i>
   <i type="int" name="ANTIRES">     0</i>
   <i name="OMEGAMAX">    -30.00000000</i>
   <i name="OMEGAMIN">    -30.00000000</i>
   <i name="OMEGATL">   -200.00000000</i>
   <i type="int" name="OMEGAGRID">     0</i>
   <i name="CSHIFT">     -0.10000000</i>
   <i type="logical" name="LSELFENERGY"> F  </i>
   <i type="logical" name="LSPECTRAL"> F  </i>
   <i type="logical" name="LSPECTRALGW"> F  </i>
   <i type="logical" name="LSINGLES"> F  </i>
   <i type="logical" name="LFERMIGW"> F  </i>
   <i type="logical" name="ODDONLYGW"> F  </i>
   <i type="logical" name="EVENONLYGW"> F  </i>
   <i type="int" name="NKREDLFX">     1</i>
   <i type="int" name="NKREDLFY">     1</i>
   <i type="int" name="NKREDLFZ">     1</i>
   <i type="int" name="MAXMEM">  2800</i>
   <i type="int" name="TELESCOPE">     0</i>
   <i type="int" name="NTAUPAR">    -1</i>
   <i type="int" name="NOMEGAPAR">    -1</i>
   <i name="DAMP_NEWTON">      0.80000001</i>
   <i name="LAMBDA">      1.00000000</i>
  </separator>
  <separator name="External order field" >
   <i name="OFIELD_KAPPA">      0.00000000</i>
   <v name="OFIELD_K">      0.00000000      0.00000000      0.00000000</v>
   <i name="OFIELD_Q6_NEAR">      0.00000000</i>
   <i name="OFIELD_Q6_FAR">      0.00000000</i>
   <i name="OFIELD_A">      0.00000000</i>
  </separator>
 </parameters>
 <atominfo>
  <atoms>      12 </atoms>
  <types>       2 </types>
  <array name="atoms" >
   <dimension dim="1">ion</dimension>
   <field type="string">element</field>
   <field type="int">atomtype</field>
   <set>
    <rc><c>C </c><c>   1</c></rc>
    <rc><c>C </c><c>   1</c></rc>
    <rc><c>C </c><c>   1</c></rc>
    <rc><c>C </c><c>   1</c></rc>
    <rc><c>C </c><c>   1</c></rc>
    <rc><c>C </c><c>   1</c></rc>
    <rc><c>H </c><c>   2</c></rc>
    <rc><c>H </c><c>   2</c></rc>
    <rc><c>H </c><c>   2</c></rc>
    <rc><c>H </c><c>   2</c></rc>
    <rc><c>H </c><c>   2</c></rc>
    <rc><c>H </c><c>   2</c></rc>
   </set>
  </array>
  <array name="atomtypes" >
   <dimension dim="1">type</dimension>
   <field type="int">atomspertype</field>
   <field type="string">element</field>
   <field>mass</field>
   <field>valence</field>
   <field type="string">pseudopotential</field>
   <set>
    <rc><c>   6</c><c>C </c><c>     12.01100000</c><c>      4.00000000</c><c>  PAW_PBE C 08Apr2002                   </c></rc>
    <rc><c>   6</c><c>H </c><c>      1.00000000</c><c>      1.00000000</c><c>  PAW_PBE H 15Jun2001                   </c></rc>
   </set>
  </array>
 </atominfo>
 <structure name="initialpos" >
  <crystal>
   <varray name="basis" >
    <v>      10.58354422       0.00000000       0.00000000 </v>
    <v>       0.00000000      10.58354422       0.00000000 </v>
    <v>       0.00000000       0.00000000      10.58354422 </v>
   </varray>
   <i name="volume">   1185.47769178 </i>
   <varray name="rec_basis" >
    <v>       0.09448631       0.00000000       0.00000000 </v>
    <v>       0.00000000       0.09448631       0.00000000 </v>
    <v>       0.00000000       0.00000000       0.09448631 </v>
   </varray>
  </crystal>
  <varray name="positions" >
   <v>       0.50052650       0.63213420       0.50385125 </v>
   <v>       0.38533900       0.56881410       0.50079935 </v>
   <v>       0.38704665       0.43561230       0.50766890 </v>
   <v>       0.49855750       0.36642595       0.49526585 </v>
   <v>       0.61369110       0.43686700       0.50157045 </v>
   <v>       0.61765615       0.56689760       0.50906745 </v>
   <v>       0.50683485       0.73840765       0.49099470 </v>
   <v>       0.29029645       0.60687695       0.49681685 </v>
   <v>       0.29863195       0.38097135       0.50206075 </v>
   <v>       0.49800935       0.26585530       0.49430975 </v>
   <v>       0.69698355       0.38975980       0.49784280 </v>
   <v>       0.70642715       0.61137780       0.49975180 </v>
  </varray>
 </structure>
 <calculation>
  <scstep>
   <time name="dav">    0.22    0.22</time>
   <time name="total">    0.49    0.49</time>
   <energy>
    <i name="alphaZ">      3.48814018 </i>
    <i name="ewald">   1129.49964212 </i>
    <i name="hartreedc">  -1762.94995592 </i>
    <i name="XCdc">     91.33083702 </i>
    <i name="pawpsdc">    663.93644290 </i>
    <i name="pawaedc">   -667.40614445 </i>
    <i name="eentropy">     -0.00000000 </i>
    <i name="bandstr">   -198.53413792 </i>
    <i name="atom">    957.82965714 </i>
    <i name="e_fr_energy">    217.19448106 </i>
    <i name="e_wo_entrp">    217.19448106 </i>
    <i name="e_0_energy">    217.19448106 </i>
   </energy>
  </scstep>
  <scstep>
   <time name="dav">    0.26    0.26</time>
   <time name="total">    0.26    0.26</time>
   <energy>
    <i name="e_fr_energy">     -3.48966294 </i>
    <i name="e_wo_entrp">     -3.48966294 </i>
    <i name="e_0_energy">     -3.48966294 </i>
   </energy>
  </scstep>
  <scstep>
   <time name="dav">    0.22    0.22</time>
   <time name="total">    0.22    0.22</time>
   <energy>
    <i name="e_fr_energy">    -78.16274674 </i>
    <i name="e_wo_entrp">    -78.16274674 </i>
    <i name="e_0_energy">    -78.16274674 </i>
   </energy>
  </scstep>
  <scstep>
   <time name="dav">    0.19    0.20</time>
   <time name="total">    0.19    0.20</time>
   <energy>
    <i name="e_fr_energy">    -83.76949423 </i>
    <i name="e_wo_entrp">    -83.76949423 </i>
    <i name="e_0_energy">    -83.76949423 </i>
   </energy>
  </scstep>
  <scstep>
   <time name="dav">    0.26    0.26</time>
   <time name="total">    0.30    0.30</time>
   <energy>
    <i name="e_fr_energy">    -83.88709464 </i>
    <i name="e_wo_entrp">    -83.88709464 </i>
    <i name="e_0_energy">    -83.88709464 </i>
   </energy>
  </scstep>
  <scstep>
   <time name="dav">    0.22    0.22</time>
   <time name="total">    0.53    0.53</time>
   <energy>
    <i name="e_fr_energy">    -77.58918874 </i>
    <i name="e_wo_entrp">    -77.58918874 </i>
    <i name="e_0_energy">    -77.58918874 </i>
   </energy>
  </scstep>
  <scstep>
   <time name="dav">    0.26    0.26</time>
   <time name="total">    0.56    0.57</time>
   <energy>
    <i name="e_fr_energy">    -75.74834416 </i>
    <i name="e_wo_entrp">    -75.74834416 </i>
    <i name="e_0_energy">    -75.74834416 </i>
   </energy>
  </scstep>
  <scstep>
   <time name="dav">    0.24    0.24</time>
   <time name="total">    0.54    0.54</time>
   <energy>
    <i name="e_fr_energy">    -75.58074213 </i>
    <i name="e_wo_entrp">    -75.58074213 </i>
    <i name="e_0_energy">    -75.58074213 </i>
   </energy>
  </scstep>
  <scstep>
   <time name="dav">    0.24    0.24</time>
   <time name="total">    0.54    0.54</time>
   <energy>
    <i name="e_fr_energy">    -75.54970627 </i>
    <i name="e_wo_entrp">    -75.54970627 </i>
    <i name="e_0_energy">    -75.54970627 </i>
   </energy>
  </scstep>
  <scstep>
   <time name="dav">    0.24    0.24</time>
   <time name="total">    0.54    0.54</time>
   <energy>
    <i name="e_fr_energy">    -75.54452587 </i>
    <i name="e_wo_entrp">    -75.54452587 </i>
    <i name="e_0_energy">    -75.54452587 </i>
   </energy>
  </scstep>
  <scstep>
   <time name="dav">    0.19    0.20</time>
   <time name="total">    0.50    0.51</time>
   <energy>
    <i name="e_fr_energy">    -75.53514301 </i>
    <i name="e_wo_entrp">    -75.53514301 </i>
    <i name="e_0_energy">    -75.53514301 </i>
   </energy>
  </scstep>
  <scstep>
   <time name="dav">    0.21    0.22</time>
   <time name="total">    0.50    0.51</time>
   <energy>
    <i name="e_fr_energy">    -75.54099655 </i>
    <i name="e_wo_entrp">    -75.54099655 </i>
    <i name="e_0_energy">    -75.54099655 </i>
   </energy>
  </scstep>
  <scstep>
   <time name="dav">    0.21    0.22</time>
   <time name="total">    0.50    0.50</time>
   <energy>
    <i name="e_fr_energy">    -75.55136797 </i>
    <i name="e_wo_entrp">    -75.55136797 </i>
    <i name="e_0_energy">    -75.55136797 </i>
   </energy>
  </scstep>
  <scstep>
   <time name="dav">    0.21    0.21</time>
   <time name="total">    0.50    0.50</time>
   <energy>
    <i name="e_fr_energy">    -75.55827174 </i>
    <i name="e_wo_entrp">    -75.55827174 </i>
    <i name="e_0_energy">    -75.55827174 </i>
   </energy>
  </scstep>
  <scstep>
   <time name="dav">    0.21    0.21</time>
   <time name="total">    0.49    0.50</time>
   <energy>
    <i name="e_fr_energy">    -75.56108282 </i>
    <i name="e_wo_entrp">    -75.56108282 </i>
    <i name="e_0_energy">    -75.56108282 </i>
   </energy>
  </scstep>
  <scstep>
   <time name="dav">    0.22    0.22</time>
   <time name="total">    0.50    0.50</time>
   <energy>
    <i name="e_fr_energy">    -75.56226465 </i>
    <i name="e_wo_entrp">    -75.56226465 </i>
    <i name="e_0_energy">    -75.56226465 </i>
   </energy>
  </scstep>
  <scstep>
   <time name="dav">    0.24    0.24</time>
   <time name="total">    0.52    0.53</time>
   <energy>
    <i name="e_fr_energy">    -75.56255418 </i>
    <i name="e_wo_entrp">    -75.56255418 </i>
    <i name="e_0_energy">    -75.56255418 </i>
   </energy>
  </scstep>
  <scstep>
   <time name="dav">    0.24    0.24</time>
   <time name="total">    0.54    0.54</time>
   <energy>
    <i name="e_fr_energy">    -75.56265100 </i>
    <i name="e_wo_entrp">    -75.56265100 </i>
    <i name="e_0_energy">    -75.56265100 </i>
   </energy>
  </scstep>
  <scstep>
   <time name="dav">    0.19    0.19</time>
   <time name="total">    0.49    0.49</time>
   <energy>
    <i name="e_fr_energy">    -75.56267585 </i>
    <i name="e_wo_entrp">    -75.56267585 </i>
    <i name="e_0_energy">    -75.56267585 </i>
   </energy>
  </scstep>
  <scstep>
   <time name="dav">    0.19    0.19</time>
   <time name="total">    0.49    0.49</time>
   <energy>
    <i name="e_fr_energy">    -75.56268498 </i>
    <i name="e_wo_entrp">    -75.56268498 </i>
    <i name="e_0_energy">    -75.56268498 </i>
   </energy>
  </scstep>
  <scstep>
   <time name="dav">    0.19    0.19</time>
   <time name="total">    0.49    0.49</time>
   <energy>
    <i name="e_fr_energy">    -75.56268805 </i>
    <i name="e_wo_entrp">    -75.56268805 </i>
    <i name="e_0_energy">    -75.56268805 </i>
   </energy>
  </scstep>
  <scstep>
   <time name="dav">    0.19    0.19</time>
   <time name="total">    0.45    0.45</time>
   <energy>
    <i name="alphaZ">      3.48814018 </i>
    <i name="ewald">   1129.49964212 </i>
    <i name="hartreedc">  -1910.64235456 </i>
    <i name="XCdc">     98.30358635 </i>
    <i name="pawpsdc">   2505.56297696 </i>
    <i name="pawaedc">  -2509.83059144 </i>
    <i name="eentropy">     -0.00000000 </i>
    <i name="bandstr">   -349.77374558 </i>
    <i name="atom">    957.82965714 </i>
    <i name="e_fr_energy">    -75.56268883 </i>
    <i name="e_wo_entrp">    -75.56268883 </i>
    <i name="e_0_energy">    -75.56268883 </i>
   </energy>
  </scstep>
  <structure>
   <crystal>
    <varray name="basis" >
     <v>      10.58354422       0.00000000       0.00000000 </v>
     <v>       0.00000000      10.58354422       0.00000000 </v>
     <v>       0.00000000       0.00000000      10.58354422 </v>
    </varray>
    <i name="volume">   1185.47769178 </i>
    <varray name="rec_basis" >
     <v>       0.09448631       0.00000000       0.00000000 </v>
     <v>       0.00000000       0.09448631       0.00000000 </v>
     <v>       0.00000000       0.00000000       0.09448631 </v>
    </varray>
   </crystal>
   <varray name="positions" >
    <v>       0.50052650       0.63213420       0.50385125 </v>
    <v>       0.38533900       0.56881410       0.50079935 </v>
    <v>       0.38704665       0.43561230       0.50766890 </v>
    <v>       0.49855750       0.36642595       0.49526585 </v>
    <v>       0.61369110       0.43686700       0.50157045 </v>
    <v>       0.61765615       0.56689760       0.50906745 </v>
    <v>       0.50683485       0.73840765       0.49099470 </v>
    <v>       0.29029645       0.60687695       0.49681685 </v>
    <v>       0.29863195       0.38097135       0.50206075 </v>
    <v>       0.49800935       0.26585530       0.49430975 </v>
    <v>       0.69698355       0.38975980       0.49784280 </v>
    <v>       0.70642715       0.61137780       0.49975180 </v>
   </varray>
  </structure>
  <varray name="forces" >
   <v>       0.72084406       1.87175407      -0.43458627 </v>
   <v>       0.26624706      -1.28102158       0.55937241 </v>
   <v>      -0.28597352      -0.66743405      -1.06062948 </v>
   <v>       0.81286789       2.29340863       1.01417845 </v>
   <v>      -2.81471084      -0.07420460       0.00177606 </v>
   <v>      -2.39664826      -0.46688142      -0.54097111 </v>
   <v>      -0.34540399      -1.14418905       0.34451272 </v>
   <v>       0.13010071       0.80929599      -0.01154911 </v>
   <v>       0.05387234       0.37808327       0.20506990 </v>
   <v>       0.06687591      -0.88159388      -0.13152280 </v>
   <v>       2.81759287      -1.71972978      -0.14361101 </v>
   <v>       0.97433577       0.88251239       0.19796024 </v>
  </varray>
  <varray name="stress" >
   <v>       1.36528976      -3.60368078      -0.47320975 </v>
   <v>      -3.60368078       1.60103662       0.03991843 </v>
   <v>      -0.47320975       0.03991843      -0.47277106 </v>
  </varray>
  <energy>
   <i name="e_fr_energy">    -75.56268883 </i>
   <i name="e_wo_entrp">    -75.56268883 </i>
   <i name="e_0_energy">    -75.56268883 </i>
  </energy>
  <time name="totalsc">   15.52   15.71</time>
  <eigenvalues>
   <array>
    <dimension dim="1">band</dimension>
    <dimension dim="2">kpoint</dimension>
    <dimension dim="3">spin</dimension>
    <field>eigene</field>
    <field>occ</field>
    <set>
     <set comment="spin 1">
      <set comment="kpoint 1">
       <r>  -20.7195    1.0000 </r>
       <r>  -18.1034    1.0000 </r>
       <r>  -17.9080    1.0000 </r>
       <r>  -14.5350    1.0000 </r>
       <r>  -14.3188    1.0000 </r>
       <r>  -12.4723    1.0000 </r>
       <r>  -10.8943    1.0000 </r>
       <r>  -10.4410    1.0000 </r>
       <r>   -9.8650    1.0000 </r>
       <r>   -9.7393    1.0000 </r>
       <r>   -8.5898    1.0000 </r>
       <r>   -7.8287    1.0000 </r>
       <r>   -7.6743    1.0000 </r>
       <r>   -5.9435    1.0000 </r>
       <r>   -5.8541    1.0000 </r>
       <r>   -0.9519    0.0000 </r>
       <r>   -0.8472    0.0000 </r>
       <r>   -0.4210    0.0000 </r>
       <r>    0.7015    0.0000 </r>
       <r>    0.8462    0.0000 </r>
       <r>    0.8754    0.0000 </r>
       <r>    0.9312    0.0000 </r>
       <r>    0.9928    0.0000 </r>
       <r>    1.4512    0.0000 </r>
      </set>
     </set>
    </set>
   </array>
  </eigenvalues>
  <separator name="orbital magnetization" >
   <v name="MAGDIPOLOUT">      0.00000000      0.00000000      0.00000000</v>
  </separator>
  <dos>
   <i name="efermi">     -5.56446593 </i>
   <total>
    <array>
     <dimension dim="1">gridpoints</dimension>
     <dimension dim="2">spin</dimension>
     <field>energy</field>
     <field>total</field>
     <field>integrated</field>
     <set>
      <set comment="spin 1">
       <r>   -21.8280     0.0000     0.0000 </r>
       <r>   -21.7467     0.0000     0.0000 </r>
       <r>   -21.6655     0.0000     0.0000 </r>
       <r>   -21.5842     0.0000     0.0000 </r>
       <r>   -21.5029     0.0000     0.0000 </r>
       <r>   -21.4216     0.0000     0.0000 </r>
       <r>   -21.3403     0.0000     0.0000 </r>
       <r>   -21.2590     0.0000     0.0000 </r>
       <r>   -21.1777     0.0000     0.0000 </r>
       <r>   -21.0964     0.0000     0.0000 </r>
       <r>   -21.0151     0.0000     0.0000 </r>
       <r>   -20.9338     0.0000     0.0000 </r>
       <r>   -20.8525     0.0021     0.0002 </r>
       <r>   -20.7712     1.7621     0.1434 </r>
       <r>   -20.6899    17.8798     1.5969 </r>
       <r>   -20.6087     4.9375     1.9983 </r>
       <r>   -20.5274     0.0211     2.0000 </r>
       <r>   -20.4461     0.0000     2.0000 </r>
       <r>   -20.3648     0.0000     2.0000 </r>
       <r>   -20.2835     0.0000     2.0000 </r>
       <r>   -20.2022     0.0000     2.0000 </r>
       <r>   -20.1209     0.0000     2.0000 </r>
       <r>   -20.0396     0.0000     2.0000 </r>
       <r>   -19.9583     0.0000     2.0000 </r>
       <r>   -19.8770     0.0000     2.0000 </r>
       <r>   -19.7957     0.0000     2.0000 </r>
       <r>   -19.7144     0.0000     2.0000 </r>
       <r>   -19.6331     0.0000     2.0000 </r>
       <r>   -19.5519     0.0000     2.0000 </r>
       <r>   -19.4706     0.0000     2.0000 </r>
       <r>   -19.3893     0.0000     2.0000 </r>
       <r>   -19.3080     0.0000     2.0000 </r>
       <r>   -19.2267     0.0000     2.0000 </r>
       <r>   -19.1454     0.0000     2.0000 </r>
       <r>   -19.0641     0.0000     2.0000 </r>
       <r>   -18.9828     0.0000     2.0000 </r>
       <r>   -18.9015     0.0000     2.0000 </r>
       <r>   -18.8202     0.0000     2.0000 </r>
       <r>   -18.7389     0.0000     2.0000 </r>
       <r>   -18.6576     0.0000     2.0000 </r>
       <r>   -18.5763     0.0000     2.0000 </r>
       <r>   -18.4950     0.0000     2.0000 </r>
       <r>   -18.4138     0.0000     2.0000 </r>
       <r>   -18.3325     0.0000     2.0000 </r>
       <r>   -18.2512     0.0004     2.0000 </r>
       <r>   -18.1699     0.7398     2.0602 </r>
       <r>   -18.0886    15.5629     3.3253 </r>
       <r>   -18.0073     8.2799     3.9984 </r>
       <r>   -17.9260     7.5194     4.6097 </r>
       <r>   -17.8447    16.1967     5.9263 </r>
       <r>   -17.7634     0.9055     6.0000 </r>
       <r>   -17.6821     0.0005     6.0000 </r>
       <r>   -17.6008     0.0000     6.0000 </r>
       <r>   -17.5195     0.0000     6.0000 </r>
       <r>   -17.4382     0.0000     6.0000 </r>
       <r>   -17.3570     0.0000     6.0000 </r>
       <r>   -17.2757     0.0000     6.0000 </r>
       <r>   -17.1944     0.0000     6.0000 </r>
       <r>   -17.1131     0.0000     6.0000 </r>
       <r>   -17.0318     0.0000     6.0000 </r>
       <r>   -16.9505     0.0000     6.0000 </r>
       <r>   -16.8692     0.0000     6.0000 </r>
       <r>   -16.7879     0.0000     6.0000 </r>
       <r>   -16.7066     0.0000     6.0000 </r>
       <r>   -16.6253     0.0000     6.0000 </r>
       <r>   -16.5440     0.0000     6.0000 </r>
       <r>   -16.4627     0.0000     6.0000 </r>
       <r>   -16.3814     0.0000     6.0000 </r>
       <r>   -16.3002     0.0000     6.0000 </r>
       <r>   -16.2189     0.0000     6.0000 </r>
       <r>   -16.1376     0.0000     6.0000 </r>
       <r>   -16.0563     0.0000     6.0000 </r>
       <r>   -15.9750     0.0000     6.0000 </r>
       <r>   -15.8937     0.0000     6.0000 </r>
       <r>   -15.8124     0.0000     6.0000 </r>
       <r>   -15.7311     0.0000     6.0000 </r>
       <r>   -15.6498     0.0000     6.0000 </r>
       <r>   -15.5685     0.0000     6.0000 </r>
       <r>   -15.4872     0.0000     6.0000 </r>
       <r>   -15.4059     0.0000     6.0000 </r>
       <r>   -15.3246     0.0000     6.0000 </r>
       <r>   -15.2434     0.0000     6.0000 </r>
       <r>   -15.1621     0.0000     6.0000 </r>
       <r>   -15.0808     0.0000     6.0000 </r>
       <r>   -14.9995     0.0000     6.0000 </r>
       <r>   -14.9182     0.0000     6.0000 </r>
       <r>   -14.8369     0.0000     6.0000 </r>
       <r>   -14.7556     0.0000     6.0000 </r>
       <r>   -14.6743     0.0010     6.0001 </r>
       <r>   -14.5930     1.2414     6.1010 </r>
       <r>   -14.5117    17.0899     7.4903 </r>
       <r>   -14.4304     6.2517     7.9985 </r>
       <r>   -14.3491     4.8227     8.3905 </r>
       <r>   -14.2678    17.9571     9.8503 </r>
       <r>   -14.1865     1.8389     9.9998 </r>
       <r>   -14.1053     0.0023    10.0000 </r>
       <r>   -14.0240     0.0000    10.0000 </r>
       <r>   -13.9427     0.0000    10.0000 </r>
       <r>   -13.8614     0.0000    10.0000 </r>
       <r>   -13.7801     0.0000    10.0000 </r>
       <r>   -13.6988     0.0000    10.0000 </r>
       <r>   -13.6175     0.0000    10.0000 </r>
       <r>   -13.5362     0.0000    10.0000 </r>
       <r>   -13.4549     0.0000    10.0000 </r>
       <r>   -13.3736     0.0000    10.0000 </r>
       <r>   -13.2923     0.0000    10.0000 </r>
       <r>   -13.2110     0.0000    10.0000 </r>
       <r>   -13.1297     0.0000    10.0000 </r>
       <r>   -13.0485     0.0000    10.0000 </r>
       <r>   -12.9672     0.0000    10.0000 </r>
       <r>   -12.8859     0.0000    10.0000 </r>
       <r>   -12.8046     0.0000    10.0000 </r>
       <r>   -12.7233     0.0000    10.0000 </r>
       <r>   -12.6420     0.0000    10.0000 </r>
       <r>   -12.5607     0.1522    10.0124 </r>
       <r>   -12.4794    10.1802    10.8399 </r>
       <r>   -12.3981    13.8277    11.9640 </r>
       <r>   -12.3168     0.4423    12.0000 </r>
       <r>   -12.2355     0.0001    12.0000 </r>
       <r>   -12.1542     0.0000    12.0000 </r>
       <r>   -12.0729     0.0000    12.0000 </r>
       <r>   -11.9917     0.0000    12.0000 </r>
       <r>   -11.9104     0.0000    12.0000 </r>
       <r>   -11.8291     0.0000    12.0000 </r>
       <r>   -11.7478     0.0000    12.0000 </r>
       <r>   -11.6665     0.0000    12.0000 </r>
       <r>   -11.5852     0.0000    12.0000 </r>
       <r>   -11.5039     0.0000    12.0000 </r>
       <r>   -11.4226     0.0000    12.0000 </r>
       <r>   -11.3413     0.0000    12.0000 </r>
       <r>   -11.2600     0.0000    12.0000 </r>
       <r>   -11.1787     0.0000    12.0000 </r>
       <r>   -11.0974     0.0000    12.0000 </r>
       <r>   -11.0161     0.0070    12.0006 </r>
       <r>   -10.9348     3.0903    12.2518 </r>
       <r>   -10.8536    18.4447    13.7512 </r>
       <r>   -10.7723     3.0536    13.9994 </r>
       <r>   -10.6910     0.0068    14.0000 </r>
       <r>   -10.6097     0.0000    14.0000 </r>
       <r>   -10.5284     0.1651    14.0134 </r>
       <r>   -10.4471    10.4460    14.8626 </r>
       <r>   -10.3658    13.5796    15.9665 </r>
       <r>   -10.2845     0.4118    16.0000 </r>
       <r>   -10.2032     0.0001    16.0000 </r>
       <r>   -10.1219     0.0000    16.0000 </r>
       <r>   -10.0406     0.0000    16.0000 </r>
       <r>    -9.9593     0.0937    16.0076 </r>
       <r>    -9.8780     8.6643    16.7120 </r>
       <r>    -9.7968    16.4625    18.0502 </r>
       <r>    -9.7155    17.8206    19.4989 </r>
       <r>    -9.6342     6.1275    19.9970 </r>
       <r>    -9.5529     0.0364    20.0000 </r>
       <r>    -9.4716     0.0000    20.0000 </r>
       <r>    -9.3903     0.0000    20.0000 </r>
       <r>    -9.3090     0.0000    20.0000 </r>
       <r>    -9.2277     0.0000    20.0000 </r>
       <r>    -9.1464     0.0000    20.0000 </r>
       <r>    -9.0651     0.0000    20.0000 </r>
       <r>    -8.9838     0.0000    20.0000 </r>
       <r>    -8.9025     0.0000    20.0000 </r>
       <r>    -8.8212     0.0000    20.0000 </r>
       <r>    -8.7400     0.0003    20.0000 </r>
       <r>    -8.6587     0.6337    20.0515 </r>
       <r>    -8.5774    15.0552    21.2754 </r>
       <r>    -8.4961     8.8148    21.9920 </r>
       <r>    -8.4148     0.0985    22.0000 </r>
       <r>    -8.3335     0.0000    22.0000 </r>
       <r>    -8.2522     0.0000    22.0000 </r>
       <r>    -8.1709     0.0000    22.0000 </r>
       <r>    -8.0896     0.0000    22.0000 </r>
       <r>    -8.0083     0.0000    22.0000 </r>
       <r>    -7.9270     0.0666    22.0054 </r>
       <r>    -7.8457     7.6810    22.6298 </r>
       <r>    -7.7644    16.1366    23.9416 </r>
       <r>    -7.6832    10.5836    24.8020 </r>
       <r>    -7.6019    14.2391    25.9595 </r>
       <r>    -7.5206     0.4981    26.0000 </r>
       <r>    -7.4393     0.0002    26.0000 </r>
       <r>    -7.3580     0.0000    26.0000 </r>
       <r>    -7.2767     0.0000    26.0000 </r>
       <r>    -7.1954     0.0000    26.0000 </r>
       <r>    -7.1141     0.0000    26.0000 </r>
       <r>    -7.0328     0.0000    26.0000 </r>
       <r>    -6.9515     0.0000    26.0000 </r>
       <r>    -6.8702     0.0000    26.0000 </r>
       <r>    -6.7889     0.0000    26.0000 </r>
       <r>    -6.7076     0.0000    26.0000 </r>
       <r>    -6.6263     0.0000    26.0000 </r>
       <r>    -6.5451     0.0000    26.0000 </r>
       <r>    -6.4638     0.0000    26.0000 </r>
       <r>    -6.3825     0.0000    26.0000 </r>
       <r>    -6.3012     0.0000    26.0000 </r>
       <r>    -6.2199     0.0000    26.0000 </r>
       <r>    -6.1386     0.0000    26.0000 </r>
       <r>    -6.0573     0.0158    26.0013 </r>
       <r>    -5.9760     4.3919    26.3583 </r>
       <r>    -5.8947    21.2107    28.0826 </r>
       <r>    -5.8134    20.5048    29.7495 </r>
       <r>    -5.7321     3.0749    29.9994 </r>
       <r>    -5.6508     0.0069    30.0000 </r>
       <r>    -5.5695     0.0000    30.0000 </r>
       <r>    -5.4883     0.0000    30.0000 </r>
       <r>    -5.4070     0.0000    30.0000 </r>
       <r>    -5.3257     0.0000    30.0000 </r>
       <r>    -5.2444     0.0000    30.0000 </r>
       <r>    -5.1631     0.0000    30.0000 </r>
       <r>    -5.0818     0.0000    30.0000 </r>
       <r>    -5.0005     0.0000    30.0000 </r>
       <r>    -4.9192     0.0000    30.0000 </r>
       <r>    -4.8379     0.0000    30.0000 </r>
       <r>    -4.7566     0.0000    30.0000 </r>
       <r>    -4.6753     0.0000    30.0000 </r>
       <r>    -4.5940     0.0000    30.0000 </r>
       <r>    -4.5127     0.0000    30.0000 </r>
       <r>    -4.4315     0.0000    30.0000 </r>
       <r>    -4.3502     0.0000    30.0000 </r>
       <r>    -4.2689     0.0000    30.0000 </r>
       <r>    -4.1876     0.0000    30.0000 </r>
       <r>    -4.1063     0.0000    30.0000 </r>
       <r>    -4.0250     0.0000    30.0000 </r>
       <r>    -3.9437     0.0000    30.0000 </r>
       <r>    -3.8624     0.0000    30.0000 </r>
       <r>    -3.7811     0.0000    30.0000 </r>
       <r>    -3.6998     0.0000    30.0000 </r>
       <r>    -3.6185     0.0000    30.0000 </r>
       <r>    -3.5372     0.0000    30.0000 </r>
       <r>    -3.4559     0.0000    30.0000 </r>
       <r>    -3.3747     0.0000    30.0000 </r>
       <r>    -3.2934     0.0000    30.0000 </r>
       <r>    -3.2121     0.0000    30.0000 </r>
       <r>    -3.1308     0.0000    30.0000 </r>
       <r>    -3.0495     0.0000    30.0000 </r>
       <r>    -2.9682     0.0000    30.0000 </r>
       <r>    -2.8869     0.0000    30.0000 </r>
       <r>    -2.8056     0.0000    30.0000 </r>
       <r>    -2.7243     0.0000    30.0000 </r>
       <r>    -2.6430     0.0000    30.0000 </r>
       <r>    -2.5617     0.0000    30.0000 </r>
       <r>    -2.4804     0.0000    30.0000 </r>
       <r>    -2.3991     0.0000    30.0000 </r>
       <r>    -2.3178     0.0000    30.0000 </r>
       <r>    -2.2366     0.0000    30.0000 </r>
       <r>    -2.1553     0.0000    30.0000 </r>
       <r>    -2.0740     0.0000    30.0000 </r>
       <r>    -1.9927     0.0000    30.0000 </r>
       <r>    -1.9114     0.0000    30.0000 </r>
       <r>    -1.8301     0.0000    30.0000 </r>
       <r>    -1.7488     0.0000    30.0000 </r>
       <r>    -1.6675     0.0000    30.0000 </r>
       <r>    -1.5862     0.0000    30.0000 </r>
       <r>    -1.5049     0.0000    30.0000 </r>
       <r>    -1.4236     0.0000    30.0000 </r>
       <r>    -1.3423     0.0000    30.0000 </r>
       <r>    -1.2610     0.0000    30.0000 </r>
       <r>    -1.1798     0.0000    30.0000 </r>
       <r>    -1.0985     0.0004    30.0000 </r>
       <r>    -1.0172     0.7976    30.0649 </r>
       <r>    -0.9359    15.9532    31.3617 </r>
       <r>    -0.8546    18.0539    32.8294 </r>
       <r>    -0.7733    13.9510    33.9635 </r>
       <r>    -0.6920     0.4488    34.0000 </r>
       <r>    -0.6107     0.0001    34.0000 </r>
       <r>    -0.5294     0.0266    34.0022 </r>
       <r>    -0.4481     5.4185    34.4426 </r>
       <r>    -0.3668    17.6120    35.8744 </r>
       <r>    -0.2855     1.5438    35.9999 </r>
       <r>    -0.2042     0.0016    36.0000 </r>
       <r>    -0.1230     0.0000    36.0000 </r>
       <r>    -0.0417     0.0000    36.0000 </r>
       <r>     0.0396     0.0000    36.0000 </r>
       <r>     0.1209     0.0000    36.0000 </r>
       <r>     0.2022     0.0000    36.0000 </r>
       <r>     0.2835     0.0000    36.0000 </r>
       <r>     0.3648     0.0000    36.0000 </r>
       <r>     0.4461     0.0000    36.0000 </r>
       <r>     0.5274     0.0000    36.0000 </r>
       <r>     0.6087     0.1063    36.0086 </r>
       <r>     0.6900     9.0443    36.7439 </r>
       <r>     0.7713    15.3144    37.9888 </r>
       <r>     0.8526    20.9065    39.6884 </r>
       <r>     0.9339    41.2857    43.0446 </r>
       <r>     1.0151    29.6598    45.4557 </r>
       <r>     1.0964     6.6543    45.9966 </r>
       <r>     1.1777     0.0414    46.0000 </r>
       <r>     1.2590     0.0000    46.0000 </r>
       <r>     1.3403     0.0211    46.0017 </r>
       <r>     1.4216     4.9375    46.4031 </r>
       <r>     1.5029    17.8798    47.8566 </r>
       <r>     1.5842     1.7621    47.9998 </r>
       <r>     1.6655     0.0021    48.0000 </r>
       <r>     1.7468     0.0000    48.0000 </r>
       <r>     1.8281     0.0000    48.0000 </r>
       <r>     1.9094     0.0000    48.0000 </r>
       <r>     1.9907     0.0000    48.0000 </r>
       <r>     2.0719     0.0000    48.0000 </r>
       <r>     2.1532     0.0000    48.0000 </r>
       <r>     2.2345     0.0000    48.0000 </r>
       <r>     2.3158     0.0000    48.0000 </r>
       <r>     2.3971     0.0000    48.0000 </r>
       <r>     2.4784     0.0000    48.0000 </r>
       <r>     2.5597     0.0000    48.0000 </r>
      </set>
     </set>
    </array>
   </total>
  </dos>
 </calculation>
 <structure name="finalpos" >
  <crystal>
   <varray name="basis" >
    <v>      10.58354422       0.00000000       0.00000000 </v>
    <v>       0.00000000      10.58354422       0.00000000 </v>
    <v>       0.00000000       0.00000000      10.58354422 </v>
   </varray>
   <i name="volume">   1185.47769178 </i>
   <varray name="rec_basis" >
    <v>       0.09448631       0.00000000       0.00000000 </v>
    <v>       0.00000000       0.09448631       0.00000000 </v>
    <v>       0.00000000       0.00000000       0.09448631 </v>
   </varray>
  </crystal>
  <varray name="positions" >
   <v>       0.50052650       0.63213420       0.50385125 </v>
   <v>       0.38533900       0.56881410       0.50079935 </v>
   <v>       0.38704665       0.43561230       0.50766890 </v>
   <v>       0.49855750       0.36642595       0.49526585 </v>
   <v>       0.61369110       0.43686700       0.50157045 </v>
   <v>       0.61765615       0.56689760       0.50906745 </v>
   <v>       0.50683485       0.73840765       0.49099470 </v>
   <v>       0.29029645       0.60687695       0.49681685 </v>
   <v>       0.29863195       0.38097135       0.50206075 </v>
   <v>       0.49800935       0.26585530       0.49430975 </v>
   <v>       0.69698355       0.38975980       0.49784280 </v>
   <v>       0.70642715       0.61137780       0.49975180 </v>
  </varray>
 </structure>
</modeling>
