<?xml version="1.0" encoding="ISO-8859-1"?>
<modeling>
 <generator>
  <i name="program" type="string">vasp </i>
  <i name="version" type="string">6.2.0  </i>
  <i name="subversion" type="string">18Jan21 (build Mar 25 2021 14:28:09) complex                          parallel </i>
  <i name="platform" type="string">LinuxGNU </i>
  <i name="date" type="string">2021 12 20 </i>
  <i name="time" type="string">09:51:54 </i>
 </generator>
 <incar>
  <i type="string" name="SYSTEM">benzene</i>
  <i type="int" name="ISTART">     0</i>
  <i type="string" name="PREC">Accurate</i>
  <i type="string" name="ALGO">Normal</i>
  <i type="int" name="NELM">   200</i>
  <i type="int" name="IBRION">    -1</i>
  <i name="EDIFF">      0.00000100</i>
  <i type="int" name="NSW">     0</i>
  <i name="ENCUT">    600.00000000</i>
  <i type="logical" name="LREAL"> F  </i>
  <i type="int" name="ISMEAR">     0</i>
  <i name="SIGMA">      0.05000000</i>
  <i type="logical" name="LWAVE"> F  </i>
  <i type="logical" name="LCHARG"> T  </i>
  <i type="string" name="GGA">PE</i>
 </incar>
 <primitive_cell>
  <structure name="primitive_cell" >
   <crystal>
    <varray name="basis" >
     <v>      10.58354422       0.00000000       0.00000000 </v>
     <v>       0.00000000      10.58354422       0.00000000 </v>
     <v>       0.00000000       0.00000000      10.58354422 </v>
    </varray>
    <i name="volume">   1185.47769178 </i>
    <varray name="rec_basis" >
     <v>       0.09448631       0.00000000       0.00000000 </v>
     <v>       0.00000000       0.09448631       0.00000000 </v>
     <v>       0.00000000       0.00000000       0.09448631 </v>
    </varray>
   </crystal>
   <varray name="positions" >
    <v>       0.49821365       0.63053275       0.49791580 </v>
    <v>       0.38770900       0.56031695       0.49522780 </v>
    <v>       0.38520180       0.43406320       0.49748565 </v>
    <v>       0.50049575       0.37344440       0.50170520 </v>
    <v>       0.61959565       0.44064975       0.49696500 </v>
    <v>       0.62266750       0.57394015       0.50118910 </v>
    <v>       0.49533160       0.73047250       0.51768565 </v>
    <v>       0.29355840       0.60604235       0.49251510 </v>
    <v>       0.28931975       0.38429265       0.49909105 </v>
    <v>       0.49129620       0.27363135       0.51173510 </v>
    <v>       0.70299275       0.37664860       0.49530590 </v>
    <v>       0.71361805       0.61596540       0.49317865 </v>
   </varray>
  </structure>
  <varray name="primitive_index" >
   <v type="int" >        1 </v>
   <v type="int" >        2 </v>
   <v type="int" >        3 </v>
   <v type="int" >        4 </v>
   <v type="int" >        5 </v>
   <v type="int" >        6 </v>
   <v type="int" >        7 </v>
   <v type="int" >        8 </v>
   <v type="int" >        9 </v>
   <v type="int" >       10 </v>
   <v type="int" >       11 </v>
   <v type="int" >       12 </v>
  </varray>
 </primitive_cell>
 <kpoints>
  <generation param="Gamma">
   <v type="int" name="divisions">       1        1        1 </v>
   <v name="usershift">      0.00000000       0.00000000       0.00000000 </v>
   <v name="genvec1">      1.00000000       0.00000000       0.00000000 </v>
   <v name="genvec2">      0.00000000       1.00000000       0.00000000 </v>
   <v name="genvec3">      0.00000000       0.00000000       1.00000000 </v>
   <v name="shift">      0.00000000       0.00000000       0.00000000 </v>
  </generation>
  <varray name="kpointlist" >
   <v>       0.00000000       0.00000000       0.00000000 </v>
  </varray>
  <varray name="weights" >
   <v>       1.00000000 </v>
  </varray>
 </kpoints>
 <parameters>
  <separator name="general" >
   <i type="string" name="SYSTEM">benzene</i>
   <i type="logical" name="LCOMPAT"> F  </i>
  </separator>
  <separator name="electronic" >
   <i type="string" name="PREC">accura</i>
   <i name="ENMAX">    600.00000000</i>
   <i name="ENAUG">    644.87300000</i>
   <i name="EDIFF">      0.00000100</i>
   <i type="int" name="IALGO">    38</i>
   <i type="int" name="IWAVPR">    10</i>
   <i type="int" name="NBANDS">    24</i>
   <i type="int" name="NBANDSLOW">    -1</i>
   <i type="int" name="NBANDSHIGH">    -1</i>
   <i name="NELECT">     30.00000000</i>
   <i type="int" name="TURBO">     0</i>
   <i type="int" name="IRESTART">     0</i>
   <i type="int" name="NREBOOT">     0</i>
   <i type="int" name="NMIN">     0</i>
   <i name="EREF">      0.00000000</i>
   <separator name="electronic smearing" >
    <i type="int" name="ISMEAR">     0</i>
    <i name="SIGMA">      0.05000000</i>
    <i name="KSPACING">      0.50000000</i>
    <i type="logical" name="KGAMMA"> T  </i>
    <i type="logical" name="KBLOWUP"> T  </i>
   </separator>
   <separator name="electronic projectors" >
    <i type="logical" name="LREAL"> F  </i>
    <v name="ROPT">      0.00000000      0.00000000</v>
    <i type="int" name="LMAXPAW">  -100</i>
    <i type="int" name="LMAXMIX">     2</i>
    <i type="logical" name="NLSPLINE"> F  </i>
   </separator>
   <separator name="electronic startup" >
    <i type="int" name="ISTART">     0</i>
    <i type="int" name="ICHARG">     2</i>
    <i type="int" name="INIWAV">     1</i>
   </separator>
   <separator name="electronic spin" >
    <i type="int" name="ISPIN">     1</i>
    <i type="logical" name="LNONCOLLINEAR"> F  </i>
    <v name="MAGMOM">      1.00000000      1.00000000      1.00000000      1.00000000      1.00000000      1.00000000      1.00000000      1.00000000      1.00000000      1.00000000      1.00000000      1.00000000</v>
    <i name="NUPDOWN">     -1.00000000</i>
    <i type="logical" name="LSORBIT"> F  </i>
    <v name="SAXIS">      0.00000000      0.00000000      1.00000000</v>
    <i type="logical" name="LSPIRAL"> F  </i>
    <v name="QSPIRAL">      0.00000000      0.00000000      0.00000000</v>
    <i type="logical" name="LZEROZ"> F  </i>
   </separator>
   <separator name="electronic exchange-correlation" >
    <i type="logical" name="LASPH"> F  </i>
    <i type="logical" name="LMETAGGA"> F  </i>
   </separator>
   <separator name="electronic convergence" >
    <i type="int" name="NELM">   200</i>
    <i type="int" name="NELMDL">    -5</i>
    <i type="int" name="NELMIN">     2</i>
    <i name="ENINI">    600.00000000</i>
    <separator name="electronic convergence detail" >
     <i type="logical" name="LDIAG"> T  </i>
     <i type="logical" name="LSUBROT"> F  </i>
     <i name="WEIMIN">      0.00000000</i>
     <i name="EBREAK">      0.00000001</i>
     <i name="DEPER">      0.30000000</i>
     <i type="int" name="NRMM">     4</i>
     <i name="TIME">      0.40000000</i>
    </separator>
   </separator>
   <separator name="electronic mixer" >
    <i name="AMIX">      0.40000000</i>
    <i name="BMIX">      1.00000000</i>
    <i name="AMIN">      0.10000000</i>
    <i name="AMIX_MAG">      1.60000000</i>
    <i name="BMIX_MAG">      1.00000000</i>
    <separator name="electronic mixer details" >
     <i type="int" name="IMIX">     4</i>
     <i type="logical" name="MIXFIRST"> F  </i>
     <i type="int" name="MAXMIX">   -45</i>
     <i name="WC">    100.00000000</i>
     <i type="int" name="INIMIX">     1</i>
     <i type="int" name="MIXPRE">     1</i>
     <i type="int" name="MREMOVE">     5</i>
    </separator>
   </separator>
   <separator name="electronic dipolcorrection" >
    <i type="logical" name="LDIPOL"> F  </i>
    <i type="logical" name="LMONO"> F  </i>
    <i type="int" name="IDIPOL">     0</i>
    <i name="EPSILON">      1.00000000</i>
    <v name="DIPOL">   -100.00000000   -100.00000000   -100.00000000</v>
    <i name="EFIELD">      0.00000000</i>
   </separator>
  </separator>
  <separator name="grids" >
   <i type="int" name="NGX">    90</i>
   <i type="int" name="NGY">    90</i>
   <i type="int" name="NGZ">    90</i>
   <i type="int" name="NGXF">   180</i>
   <i type="int" name="NGYF">   180</i>
   <i type="int" name="NGZF">   180</i>
   <i type="logical" name="ADDGRID"> F  </i>
  </separator>
  <separator name="ionic" >
   <i type="int" name="NSW">     0</i>
   <i type="int" name="IBRION">    -1</i>
   <i type="int" name="MDALGO">     0</i>
   <i type="int" name="ISIF">     2</i>
   <i name="PSTRESS">      0.00000000</i>
   <i name="EDIFFG">      0.00001000</i>
   <i type="int" name="NFREE">     0</i>
   <i name="POTIM">      0.50000000</i>
   <i name="SMASS">     -3.00000000</i>
   <i name="SCALEE">      1.00000000</i>
  </separator>
  <separator name="ionic md" >
   <i name="TEBEG">      0.00010000</i>
   <i name="TEEND">      0.00010000</i>
   <i type="int" name="NBLOCK">     1</i>
   <i type="int" name="KBLOCK">     1</i>
   <i type="int" name="NPACO">   256</i>
   <i name="APACO">     16.00000000</i>
  </separator>
  <separator name="symmetry" >
   <i type="int" name="ISYM">     2</i>
   <i name="SYMPREC">      0.00001000</i>
  </separator>
  <separator name="dos" >
   <i type="int" name="LORBIT">     0</i>
   <v name="RWIGS">     -1.00000000     -1.00000000</v>
   <i type="int" name="NEDOS">   301</i>
   <i name="EMIN">     10.00000000</i>
   <i name="EMAX">    -10.00000000</i>
   <i name="EFERMI">      0.00000000</i>
  </separator>
  <separator name="writing" >
   <i type="int" name="NWRITE">     2</i>
   <i type="logical" name="LWAVE"> F  </i>
   <i type="logical" name="LDOWNSAMPLE"> F  </i>
   <i type="logical" name="LCHARG"> T  </i>
   <i type="logical" name="LPARD"> F  </i>
   <i type="logical" name="LVTOT"> F  </i>
   <i type="logical" name="LVHAR"> F  </i>
   <i type="logical" name="LELF"> F  </i>
   <i type="logical" name="LOPTICS"> F  </i>
   <v name="STM">      0.00000000      0.00000000      0.00000000      0.00000000      0.00000000      0.00000000      0.00000000</v>
  </separator>
  <separator name="performance" >
   <i type="int" name="NPAR">     4</i>
   <i type="int" name="NSIM">     4</i>
   <i type="int" name="NBLK">    -1</i>
   <i type="logical" name="LPLANE"> T  </i>
   <i type="logical" name="LSCALAPACK"> T  </i>
   <i type="logical" name="LSCAAWARE"> F  </i>
   <i type="logical" name="LSCALU"> F  </i>
   <i type="logical" name="LASYNC"> F  </i>
   <i type="logical" name="LORBITALREAL"> F  </i>
  </separator>
  <separator name="miscellaneous" >
   <i type="int" name="IDIOT">     3</i>
   <i type="int" name="PHON_NSTRUCT">    -1</i>
   <i type="logical" name="LMUSIC"> F  </i>
   <v name="POMASS">     12.01100000      1.00000000</v>
   <v name="DARWINR">      0.00000000      0.00000000</v>
   <v name="DARWINV">      1.00000000      1.00000000</v>
   <i type="logical" name="LCORR"> T  </i>
  </separator>
  <i type="logical" name="GGA_COMPAT"> T  </i>
  <i type="logical" name="LBERRY"> F  </i>
  <i type="int" name="ICORELEVEL">     0</i>
  <i type="logical" name="LDAU"> F  </i>
  <i type="int" name="I_CONSTRAINED_M">     0</i>
  <separator name="electronic exchange-correlation" >
   <i type="string" name="GGA">PE</i>
   <i type="int" name="VOSKOWN">     0</i>
   <i type="logical" name="LHFCALC"> F  </i>
   <i type="string" name="PRECFOCK"></i>
   <i type="logical" name="LSYMGRAD"> F  </i>
   <i type="logical" name="LHFONE"> F  </i>
   <i type="logical" name="LRHFCALC"> F  </i>
   <i type="logical" name="LTHOMAS"> F  </i>
   <i type="logical" name="LMODELHF"> F  </i>
   <i type="logical" name="LFOCKACE"> F  </i>
   <i name="ENCUT4O">     -1.00000000</i>
   <i type="int" name="EXXOEP">     0</i>
   <i type="int" name="FOURORBIT">     0</i>
   <i name="AEXX">      0.00000000</i>
   <i name="HFALPHA">      0.00000000</i>
   <i name="MCALPHA">      0.00000000</i>
   <i name="ALDAX">      1.00000000</i>
   <i name="AGGAX">      1.00000000</i>
   <i name="ALDAC">      1.00000000</i>
   <i name="AGGAC">      1.00000000</i>
   <i type="int" name="NKREDX">     1</i>
   <i type="int" name="NKREDY">     1</i>
   <i type="int" name="NKREDZ">     1</i>
   <i type="logical" name="SHIFTRED"> F  </i>
   <i type="logical" name="ODDONLY"> F  </i>
   <i type="logical" name="EVENONLY"> F  </i>
   <i type="int" name="LMAXFOCK">     0</i>
   <i type="int" name="NMAXFOCKAE">     0</i>
   <i type="logical" name="LFOCKAEDFT"> F  </i>
   <i name="HFSCREEN">      0.00000000</i>
   <i name="HFSCREENC">      0.00000000</i>
   <i type="int" name="NBANDSGWLOW">     0</i>
  </separator>
  <separator name="vdW DFT" >
   <i type="logical" name="LUSE_VDW"> F  </i>
   <i name="Zab_VDW">     -0.84910000</i>
   <i name="PARAM1">      0.12340000</i>
   <i name="PARAM2">      1.00000000</i>
   <i name="PARAM3">      0.00000000</i>
  </separator>
  <separator name="model GW" >
   <i type="int" name="MODEL_GW">     0</i>
   <i name="MODEL_EPS0">     59.27388459</i>
   <i name="MODEL_ALPHA">      1.00000000</i>
  </separator>
  <separator name="linear response parameters" >
   <i type="logical" name="LEPSILON"> F  </i>
   <i type="logical" name="LRPA"> F  </i>
   <i type="logical" name="LNABLA"> F  </i>
   <i type="logical" name="LVEL"> F  </i>
   <i type="int" name="KINTER">     0</i>
   <i name="CSHIFT">      0.10000000</i>
   <i name="OMEGAMAX">     -1.00000000</i>
   <i name="DEG_THRESHOLD">      0.00200000</i>
   <i name="RTIME">     -0.10000000</i>
   <i name="WPLASMAI">      0.00000000</i>
   <v name="DFIELD">      0.00000000      0.00000000      0.00000000</v>
   <v name="WPLASMA">      0.00000000      0.00000000      0.00000000      0.00000000      0.00000000      0.00000000      0.00000000      0.00000000      0.00000000</v>
  </separator>
  <separator name="orbital magnetization" >
   <i type="logical" name="NUCIND"> F  </i>
   <v name="MAGPOS">      0.00000000      0.00000000      0.00000000</v>
   <i type="logical" name="LNICSALL"> T  </i>
   <i type="logical" name="ORBITALMAG"> F  </i>
   <i type="logical" name="LMAGBLOCH"> F  </i>
   <i type="logical" name="LCHIMAG"> F  </i>
   <i type="logical" name="LGAUGE"> T  </i>
   <i type="int" name="MAGATOM">     0</i>
   <v name="MAGDIPOL">      0.00000000      0.00000000      0.00000000</v>
   <v name="AVECCONST">      0.00000000      0.00000000      0.00000000</v>
  </separator>
  <separator name="response functions" >
   <i type="logical" name="LFINITE_TEMPERATURE"> F  </i>
   <i type="logical" name="LADDER"> F  </i>
   <i type="logical" name="LRPAFORCE"> F  </i>
   <i type="logical" name="LFXC"> F  </i>
   <i type="logical" name="LHARTREE"> T  </i>
   <i type="int" name="IBSE">     0</i>
   <v type="int" name="KPOINT">    -1     0     0     0</v>
   <i type="logical" name="LTCTC"> F  </i>
   <i type="logical" name="LTCTE"> F  </i>
   <i type="logical" name="LTETE"> F  </i>
   <i type="logical" name="LTRIPLET"> F  </i>
   <i type="logical" name="LFXCEPS"> F  </i>
   <i type="logical" name="LFXHEG"> F  </i>
   <i type="int" name="NATURALO">     2</i>
   <i type="logical" name="LHOLEGF"> F  </i>
   <i type="logical" name="L2ORDER"> F  </i>
   <i type="logical" name="LDMP1"> F  </i>
   <i type="logical" name="LMP2LT"> F  </i>
   <i type="logical" name="LSMP2LT"> F  </i>
   <i type="logical" name="LGWLF"> F  </i>
   <i name="ENCUTGW">     -2.00000000</i>
   <i name="ENCUTGWSOFT">     -2.00000000</i>
   <i name="ENCUTLF">     -1.00000000</i>
   <i type="logical" name="LESF_SPLINES"> F  </i>
   <i type="int" name="LMAXMP2">    -1</i>
   <i name="SCISSOR">      0.00000000</i>
   <i type="int" name="NOMEGA">     0</i>
   <i type="int" name="NOMEGAR">     0</i>
   <i type="int" name="NBANDSGW">    -1</i>
   <i type="int" name="NBANDSO">    -1</i>
   <i type="int" name="NBANDSV">    -1</i>
   <i type="int" name="NELM">   200</i>
   <i type="int" name="NELMHF">     1</i>
   <i type="int" name="DIM">     3</i>
   <i type="int" name="IESPILON">     4</i>
   <i type="int" name="ANTIRES">     0</i>
   <i name="OMEGAMAX">    -30.00000000</i>
   <i name="OMEGAMIN">    -30.00000000</i>
   <i name="OMEGATL">   -200.00000000</i>
   <i type="int" name="OMEGAGRID">     0</i>
   <i name="CSHIFT">     -0.10000000</i>
   <i type="logical" name="LSELFENERGY"> F  </i>
   <i type="logical" name="LSPECTRAL"> F  </i>
   <i type="logical" name="LSPECTRALGW"> F  </i>
   <i type="logical" name="LSINGLES"> F  </i>
   <i type="logical" name="LFERMIGW"> F  </i>
   <i type="logical" name="ODDONLYGW"> F  </i>
   <i type="logical" name="EVENONLYGW"> F  </i>
   <i type="int" name="NKREDLFX">     1</i>
   <i type="int" name="NKREDLFY">     1</i>
   <i type="int" name="NKREDLFZ">     1</i>
   <i type="int" name="MAXMEM">  2800</i>
   <i type="int" name="TELESCOPE">     0</i>
   <i type="int" name="NTAUPAR">    -1</i>
   <i type="int" name="NOMEGAPAR">    -1</i>
   <i name="DAMP_NEWTON">      0.80000001</i>
   <i name="LAMBDA">      1.00000000</i>
  </separator>
  <separator name="External order field" >
   <i name="OFIELD_KAPPA">      0.00000000</i>
   <v name="OFIELD_K">      0.00000000      0.00000000      0.00000000</v>
   <i name="OFIELD_Q6_NEAR">      0.00000000</i>
   <i name="OFIELD_Q6_FAR">      0.00000000</i>
   <i name="OFIELD_A">      0.00000000</i>
  </separator>
 </parameters>
 <atominfo>
  <atoms>      12 </atoms>
  <types>       2 </types>
  <array name="atoms" >
   <dimension dim="1">ion</dimension>
   <field type="string">element</field>
   <field type="int">atomtype</field>
   <set>
    <rc><c>C </c><c>   1</c></rc>
    <rc><c>C </c><c>   1</c></rc>
    <rc><c>C </c><c>   1</c></rc>
    <rc><c>C </c><c>   1</c></rc>
    <rc><c>C </c><c>   1</c></rc>
    <rc><c>C </c><c>   1</c></rc>
    <rc><c>H </c><c>   2</c></rc>
    <rc><c>H </c><c>   2</c></rc>
    <rc><c>H </c><c>   2</c></rc>
    <rc><c>H </c><c>   2</c></rc>
    <rc><c>H </c><c>   2</c></rc>
    <rc><c>H </c><c>   2</c></rc>
   </set>
  </array>
  <array name="atomtypes" >
   <dimension dim="1">type</dimension>
   <field type="int">atomspertype</field>
   <field type="string">element</field>
   <field>mass</field>
   <field>valence</field>
   <field type="string">pseudopotential</field>
   <set>
    <rc><c>   6</c><c>C </c><c>     12.01100000</c><c>      4.00000000</c><c>  PAW_PBE C 08Apr2002                   </c></rc>
    <rc><c>   6</c><c>H </c><c>      1.00000000</c><c>      1.00000000</c><c>  PAW_PBE H 15Jun2001                   </c></rc>
   </set>
  </array>
 </atominfo>
 <structure name="initialpos" >
  <crystal>
   <varray name="basis" >
    <v>      10.58354422       0.00000000       0.00000000 </v>
    <v>       0.00000000      10.58354422       0.00000000 </v>
    <v>       0.00000000       0.00000000      10.58354422 </v>
   </varray>
   <i name="volume">   1185.47769178 </i>
   <varray name="rec_basis" >
    <v>       0.09448631       0.00000000       0.00000000 </v>
    <v>       0.00000000       0.09448631       0.00000000 </v>
    <v>       0.00000000       0.00000000       0.09448631 </v>
   </varray>
  </crystal>
  <varray name="positions" >
   <v>       0.49821365       0.63053275       0.49791580 </v>
   <v>       0.38770900       0.56031695       0.49522780 </v>
   <v>       0.38520180       0.43406320       0.49748565 </v>
   <v>       0.50049575       0.37344440       0.50170520 </v>
   <v>       0.61959565       0.44064975       0.49696500 </v>
   <v>       0.62266750       0.57394015       0.50118910 </v>
   <v>       0.49533160       0.73047250       0.51768565 </v>
   <v>       0.29355840       0.60604235       0.49251510 </v>
   <v>       0.28931975       0.38429265       0.49909105 </v>
   <v>       0.49129620       0.27363135       0.51173510 </v>
   <v>       0.70299275       0.37664860       0.49530590 </v>
   <v>       0.71361805       0.61596540       0.49317865 </v>
  </varray>
 </structure>
 <calculation>
  <scstep>
   <time name="dav">    0.21    0.21</time>
   <time name="total">    0.47    0.47</time>
   <energy>
    <i name="alphaZ">      3.48814018 </i>
    <i name="ewald">   1125.16785340 </i>
    <i name="hartreedc">  -1760.79567612 </i>
    <i name="XCdc">     91.23618258 </i>
    <i name="pawpsdc">    663.93644290 </i>
    <i name="pawaedc">   -667.40614445 </i>
    <i name="eentropy">     -0.00000000 </i>
    <i name="bandstr">   -197.26264331 </i>
    <i name="atom">    957.82965714 </i>
    <i name="e_fr_energy">    216.19381231 </i>
    <i name="e_wo_entrp">    216.19381231 </i>
    <i name="e_0_energy">    216.19381231 </i>
   </energy>
  </scstep>
  <scstep>
   <time name="dav">    0.25    0.25</time>
   <time name="total">    0.25    0.25</time>
   <energy>
    <i name="e_fr_energy">     -2.35269845 </i>
    <i name="e_wo_entrp">     -2.35269845 </i>
    <i name="e_0_energy">     -2.35269845 </i>
   </energy>
  </scstep>
  <scstep>
   <time name="dav">    0.21    0.21</time>
   <time name="total">    0.21    0.21</time>
   <energy>
    <i name="e_fr_energy">    -77.43680806 </i>
    <i name="e_wo_entrp">    -77.43680806 </i>
    <i name="e_0_energy">    -77.43680806 </i>
   </energy>
  </scstep>
  <scstep>
   <time name="dav">    0.19    0.19</time>
   <time name="total">    0.19    0.19</time>
   <energy>
    <i name="e_fr_energy">    -83.42152443 </i>
    <i name="e_wo_entrp">    -83.42152443 </i>
    <i name="e_0_energy">    -83.42152443 </i>
   </energy>
  </scstep>
  <scstep>
   <time name="dav">    0.25    0.25</time>
   <time name="total">    0.29    0.29</time>
   <energy>
    <i name="e_fr_energy">    -83.54964200 </i>
    <i name="e_wo_entrp">    -83.54964200 </i>
    <i name="e_0_energy">    -83.54964200 </i>
   </energy>
  </scstep>
  <scstep>
   <time name="dav">    0.22    0.22</time>
   <time name="total">    0.51    0.52</time>
   <energy>
    <i name="e_fr_energy">    -77.29332190 </i>
    <i name="e_wo_entrp">    -77.29332190 </i>
    <i name="e_0_energy">    -77.29332190 </i>
   </energy>
  </scstep>
  <scstep>
   <time name="dav">    0.25    0.25</time>
   <time name="total">    0.55    0.55</time>
   <energy>
    <i name="e_fr_energy">    -75.54531030 </i>
    <i name="e_wo_entrp">    -75.54531030 </i>
    <i name="e_0_energy">    -75.54531030 </i>
   </energy>
  </scstep>
  <scstep>
   <time name="dav">    0.23    0.23</time>
   <time name="total">    0.52    0.53</time>
   <energy>
    <i name="e_fr_energy">    -75.37275244 </i>
    <i name="e_wo_entrp">    -75.37275244 </i>
    <i name="e_0_energy">    -75.37275244 </i>
   </energy>
  </scstep>
  <scstep>
   <time name="dav">    0.23    0.23</time>
   <time name="total">    0.52    0.52</time>
   <energy>
    <i name="e_fr_energy">    -75.34451921 </i>
    <i name="e_wo_entrp">    -75.34451921 </i>
    <i name="e_0_energy">    -75.34451921 </i>
   </energy>
  </scstep>
  <scstep>
   <time name="dav">    0.23    0.23</time>
   <time name="total">    0.52    0.52</time>
   <energy>
    <i name="e_fr_energy">    -75.33919872 </i>
    <i name="e_wo_entrp">    -75.33919872 </i>
    <i name="e_0_energy">    -75.33919872 </i>
   </energy>
  </scstep>
  <scstep>
   <time name="dav">    0.20    0.20</time>
   <time name="total">    0.49    0.49</time>
   <energy>
    <i name="e_fr_energy">    -75.33409875 </i>
    <i name="e_wo_entrp">    -75.33409875 </i>
    <i name="e_0_energy">    -75.33409875 </i>
   </energy>
  </scstep>
  <scstep>
   <time name="dav">    0.21    0.21</time>
   <time name="total">    0.49    0.50</time>
   <energy>
    <i name="e_fr_energy">    -75.33817854 </i>
    <i name="e_wo_entrp">    -75.33817854 </i>
    <i name="e_0_energy">    -75.33817854 </i>
   </energy>
  </scstep>
  <scstep>
   <time name="dav">    0.23    0.23</time>
   <time name="total">    0.50    0.51</time>
   <energy>
    <i name="e_fr_energy">    -75.34478347 </i>
    <i name="e_wo_entrp">    -75.34478347 </i>
    <i name="e_0_energy">    -75.34478347 </i>
   </energy>
  </scstep>
  <scstep>
   <time name="dav">    0.21    0.21</time>
   <time name="total">    0.48    0.49</time>
   <energy>
    <i name="e_fr_energy">    -75.35216099 </i>
    <i name="e_wo_entrp">    -75.35216099 </i>
    <i name="e_0_energy">    -75.35216099 </i>
   </energy>
  </scstep>
  <scstep>
   <time name="dav">    0.21    0.21</time>
   <time name="total">    0.48    0.48</time>
   <energy>
    <i name="e_fr_energy">    -75.35645122 </i>
    <i name="e_wo_entrp">    -75.35645122 </i>
    <i name="e_0_energy">    -75.35645122 </i>
   </energy>
  </scstep>
  <scstep>
   <time name="dav">    0.23    0.23</time>
   <time name="total">    0.50    0.50</time>
   <energy>
    <i name="e_fr_energy">    -75.35761478 </i>
    <i name="e_wo_entrp">    -75.35761478 </i>
    <i name="e_0_energy">    -75.35761478 </i>
   </energy>
  </scstep>
  <scstep>
   <time name="dav">    0.21    0.21</time>
   <time name="total">    0.48    0.48</time>
   <energy>
    <i name="e_fr_energy">    -75.35835503 </i>
    <i name="e_wo_entrp">    -75.35835503 </i>
    <i name="e_0_energy">    -75.35835503 </i>
   </energy>
  </scstep>
  <scstep>
   <time name="dav">    0.24    0.24</time>
   <time name="total">    0.52    0.52</time>
   <energy>
    <i name="e_fr_energy">    -75.35846898 </i>
    <i name="e_wo_entrp">    -75.35846898 </i>
    <i name="e_0_energy">    -75.35846898 </i>
   </energy>
  </scstep>
  <scstep>
   <time name="dav">    0.19    0.19</time>
   <time name="total">    0.47    0.47</time>
   <energy>
    <i name="e_fr_energy">    -75.35850811 </i>
    <i name="e_wo_entrp">    -75.35850811 </i>
    <i name="e_0_energy">    -75.35850811 </i>
   </energy>
  </scstep>
  <scstep>
   <time name="dav">    0.19    0.19</time>
   <time name="total">    0.47    0.48</time>
   <energy>
    <i name="e_fr_energy">    -75.35852059 </i>
    <i name="e_wo_entrp">    -75.35852059 </i>
    <i name="e_0_energy">    -75.35852059 </i>
   </energy>
  </scstep>
  <scstep>
   <time name="dav">    0.19    0.19</time>
   <time name="total">    0.47    0.48</time>
   <energy>
    <i name="e_fr_energy">    -75.35852501 </i>
    <i name="e_wo_entrp">    -75.35852501 </i>
    <i name="e_0_energy">    -75.35852501 </i>
   </energy>
  </scstep>
  <scstep>
   <time name="dav">    0.19    0.19</time>
   <time name="total">    0.44    0.44</time>
   <energy>
    <i name="alphaZ">      3.48814018 </i>
    <i name="ewald">   1125.16785340 </i>
    <i name="hartreedc">  -1906.61458555 </i>
    <i name="XCdc">     98.07503118 </i>
    <i name="pawpsdc">   2487.90978061 </i>
    <i name="pawaedc">  -2492.16100930 </i>
    <i name="eentropy">     -0.00000000 </i>
    <i name="bandstr">   -349.05339359 </i>
    <i name="atom">    957.82965714 </i>
    <i name="e_fr_energy">    -75.35852593 </i>
    <i name="e_wo_entrp">    -75.35852593 </i>
    <i name="e_0_energy">    -75.35852593 </i>
   </energy>
  </scstep>
  <structure>
   <crystal>
    <varray name="basis" >
     <v>      10.58354422       0.00000000       0.00000000 </v>
     <v>       0.00000000      10.58354422       0.00000000 </v>
     <v>       0.00000000       0.00000000      10.58354422 </v>
    </varray>
    <i name="volume">   1185.47769178 </i>
    <varray name="rec_basis" >
     <v>       0.09448631       0.00000000       0.00000000 </v>
     <v>       0.00000000       0.09448631       0.00000000 </v>
     <v>       0.00000000       0.00000000       0.09448631 </v>
    </varray>
   </crystal>
   <varray name="positions" >
    <v>       0.49821365       0.63053275       0.49791580 </v>
    <v>       0.38770900       0.56031695       0.49522780 </v>
    <v>       0.38520180       0.43406320       0.49748565 </v>
    <v>       0.50049575       0.37344440       0.50170520 </v>
    <v>       0.61959565       0.44064975       0.49696500 </v>
    <v>       0.62266750       0.57394015       0.50118910 </v>
    <v>       0.49533160       0.73047250       0.51768565 </v>
    <v>       0.29355840       0.60604235       0.49251510 </v>
    <v>       0.28931975       0.38429265       0.49909105 </v>
    <v>       0.49129620       0.27363135       0.51173510 </v>
    <v>       0.70299275       0.37664860       0.49530590 </v>
    <v>       0.71361805       0.61596540       0.49317865 </v>
   </varray>
  </structure>
  <varray name="forces" >
   <v>       2.21075041       0.25599858       0.74375694 </v>
   <v>      -1.33273795       3.04853816      -0.13717868 </v>
   <v>      -0.96396460      -2.35926041       0.03397381 </v>
   <v>       1.08355766       0.46946323      -0.06088889 </v>
   <v>      -1.14764291      -1.39091939       0.34675942 </v>
   <v>      -2.76316805      -2.11370385      -0.72284110 </v>
   <v>      -0.26938177       0.57942261      -0.41067537 </v>
   <v>       0.62683454       0.33731156       0.09254184 </v>
   <v>       1.51711869       0.38292207      -0.02583156 </v>
   <v>       0.74706874      -1.04958617      -0.09386247 </v>
   <v>      -0.21452329       0.79297173       0.03848624 </v>
   <v>       0.50608853       1.04684188       0.19575982 </v>
  </varray>
  <varray name="stress" >
   <v>      -8.97205740      -3.67511993       0.02416882 </v>
   <v>      -3.67511993       8.67250791      -0.32118617 </v>
   <v>       0.02416882      -0.32118616      -0.36950100 </v>
  </varray>
  <energy>
   <i name="e_fr_energy">    -75.35852593 </i>
   <i name="e_wo_entrp">    -75.35852593 </i>
   <i name="e_0_energy">    -75.35852593 </i>
  </energy>
  <time name="totalsc">   14.94   15.14</time>
  <eigenvalues>
   <array>
    <dimension dim="1">band</dimension>
    <dimension dim="2">kpoint</dimension>
    <dimension dim="3">spin</dimension>
    <field>eigene</field>
    <field>occ</field>
    <set>
     <set comment="spin 1">
      <set comment="kpoint 1">
       <r>  -20.8060    1.0000 </r>
       <r>  -18.2194    1.0000 </r>
       <r>  -17.7593    1.0000 </r>
       <r>  -14.5716    1.0000 </r>
       <r>  -14.2287    1.0000 </r>
       <r>  -12.4103    1.0000 </r>
       <r>  -10.9301    1.0000 </r>
       <r>  -10.2720    1.0000 </r>
       <r>  -10.0286    1.0000 </r>
       <r>   -9.3680    1.0000 </r>
       <r>   -8.7096    1.0000 </r>
       <r>   -7.9497    1.0000 </r>
       <r>   -7.4558    1.0000 </r>
       <r>   -6.1034    1.0000 </r>
       <r>   -5.7141    1.0000 </r>
       <r>   -1.0188    0.0000 </r>
       <r>   -0.7935    0.0000 </r>
       <r>   -0.4465    0.0000 </r>
       <r>    0.6754    0.0000 </r>
       <r>    0.8003    0.0000 </r>
       <r>    0.8535    0.0000 </r>
       <r>    0.9196    0.0000 </r>
       <r>    0.9845    0.0000 </r>
       <r>    1.4415    0.0000 </r>
      </set>
     </set>
    </set>
   </array>
  </eigenvalues>
  <separator name="orbital magnetization" >
   <v name="MAGDIPOLOUT">      0.00000000      0.00000000      0.00000000</v>
  </separator>
  <dos>
   <i name="efermi">     -5.43528181 </i>
   <total>
    <array>
     <dimension dim="1">gridpoints</dimension>
     <dimension dim="2">spin</dimension>
     <field>energy</field>
     <field>total</field>
     <field>integrated</field>
     <set>
      <set comment="spin 1">
       <r>   -21.9184     0.0000     0.0000 </r>
       <r>   -21.8368     0.0000     0.0000 </r>
       <r>   -21.7552     0.0000     0.0000 </r>
       <r>   -21.6736     0.0000     0.0000 </r>
       <r>   -21.5921     0.0000     0.0000 </r>
       <r>   -21.5105     0.0000     0.0000 </r>
       <r>   -21.4289     0.0000     0.0000 </r>
       <r>   -21.3473     0.0000     0.0000 </r>
       <r>   -21.2658     0.0000     0.0000 </r>
       <r>   -21.1842     0.0000     0.0000 </r>
       <r>   -21.1026     0.0000     0.0000 </r>
       <r>   -21.0210     0.0000     0.0000 </r>
       <r>   -20.9395     0.0020     0.0002 </r>
       <r>   -20.8579     1.7392     0.1420 </r>
       <r>   -20.7763    17.8549     1.5985 </r>
       <r>   -20.6947     4.9012     1.9983 </r>
       <r>   -20.6132     0.0203     2.0000 </r>
       <r>   -20.5316     0.0000     2.0000 </r>
       <r>   -20.4500     0.0000     2.0000 </r>
       <r>   -20.3684     0.0000     2.0000 </r>
       <r>   -20.2869     0.0000     2.0000 </r>
       <r>   -20.2053     0.0000     2.0000 </r>
       <r>   -20.1237     0.0000     2.0000 </r>
       <r>   -20.0421     0.0000     2.0000 </r>
       <r>   -19.9606     0.0000     2.0000 </r>
       <r>   -19.8790     0.0000     2.0000 </r>
       <r>   -19.7974     0.0000     2.0000 </r>
       <r>   -19.7159     0.0000     2.0000 </r>
       <r>   -19.6343     0.0000     2.0000 </r>
       <r>   -19.5527     0.0000     2.0000 </r>
       <r>   -19.4711     0.0000     2.0000 </r>
       <r>   -19.3896     0.0000     2.0000 </r>
       <r>   -19.3080     0.0000     2.0000 </r>
       <r>   -19.2264     0.0000     2.0000 </r>
       <r>   -19.1448     0.0000     2.0000 </r>
       <r>   -19.0633     0.0000     2.0000 </r>
       <r>   -18.9817     0.0000     2.0000 </r>
       <r>   -18.9001     0.0000     2.0000 </r>
       <r>   -18.8185     0.0000     2.0000 </r>
       <r>   -18.7370     0.0000     2.0000 </r>
       <r>   -18.6554     0.0000     2.0000 </r>
       <r>   -18.5738     0.0000     2.0000 </r>
       <r>   -18.4922     0.0000     2.0000 </r>
       <r>   -18.4107     0.0000     2.0000 </r>
       <r>   -18.3291     0.0235     2.0019 </r>
       <r>   -18.2475     5.2066     2.4266 </r>
       <r>   -18.1659    17.6882     3.8695 </r>
       <r>   -18.0844     1.5976     3.9999 </r>
       <r>   -18.0028     0.0016     4.0000 </r>
       <r>   -17.9212     0.0001     4.0000 </r>
       <r>   -17.8396     0.2820     4.0230 </r>
       <r>   -17.7581    12.3090     5.0271 </r>
       <r>   -17.6765    11.6909     5.9808 </r>
       <r>   -17.5949     0.2356     6.0000 </r>
       <r>   -17.5134     0.0000     6.0000 </r>
       <r>   -17.4318     0.0000     6.0000 </r>
       <r>   -17.3502     0.0000     6.0000 </r>
       <r>   -17.2686     0.0000     6.0000 </r>
       <r>   -17.1871     0.0000     6.0000 </r>
       <r>   -17.1055     0.0000     6.0000 </r>
       <r>   -17.0239     0.0000     6.0000 </r>
       <r>   -16.9423     0.0000     6.0000 </r>
       <r>   -16.8608     0.0000     6.0000 </r>
       <r>   -16.7792     0.0000     6.0000 </r>
       <r>   -16.6976     0.0000     6.0000 </r>
       <r>   -16.6160     0.0000     6.0000 </r>
       <r>   -16.5345     0.0000     6.0000 </r>
       <r>   -16.4529     0.0000     6.0000 </r>
       <r>   -16.3713     0.0000     6.0000 </r>
       <r>   -16.2897     0.0000     6.0000 </r>
       <r>   -16.2082     0.0000     6.0000 </r>
       <r>   -16.1266     0.0000     6.0000 </r>
       <r>   -16.0450     0.0000     6.0000 </r>
       <r>   -15.9634     0.0000     6.0000 </r>
       <r>   -15.8819     0.0000     6.0000 </r>
       <r>   -15.8003     0.0000     6.0000 </r>
       <r>   -15.7187     0.0000     6.0000 </r>
       <r>   -15.6371     0.0000     6.0000 </r>
       <r>   -15.5556     0.0000     6.0000 </r>
       <r>   -15.4740     0.0000     6.0000 </r>
       <r>   -15.3924     0.0000     6.0000 </r>
       <r>   -15.3108     0.0000     6.0000 </r>
       <r>   -15.2293     0.0000     6.0000 </r>
       <r>   -15.1477     0.0000     6.0000 </r>
       <r>   -15.0661     0.0000     6.0000 </r>
       <r>   -14.9846     0.0000     6.0000 </r>
       <r>   -14.9030     0.0000     6.0000 </r>
       <r>   -14.8214     0.0000     6.0000 </r>
       <r>   -14.7398     0.0000     6.0000 </r>
       <r>   -14.6583     0.1752     6.0143 </r>
       <r>   -14.5767    10.6935     6.8866 </r>
       <r>   -14.4951    13.2761     7.9696 </r>
       <r>   -14.4135     0.3727     8.0000 </r>
       <r>   -14.3320     0.0431     8.0035 </r>
       <r>   -14.2504     6.5830     8.5405 </r>
       <r>   -14.1688    16.7879     9.9100 </r>
       <r>   -14.0872     1.1029     9.9999 </r>
       <r>   -14.0057     0.0008    10.0000 </r>
       <r>   -13.9241     0.0000    10.0000 </r>
       <r>   -13.8425     0.0000    10.0000 </r>
       <r>   -13.7609     0.0000    10.0000 </r>
       <r>   -13.6794     0.0000    10.0000 </r>
       <r>   -13.5978     0.0000    10.0000 </r>
       <r>   -13.5162     0.0000    10.0000 </r>
       <r>   -13.4346     0.0000    10.0000 </r>
       <r>   -13.3531     0.0000    10.0000 </r>
       <r>   -13.2715     0.0000    10.0000 </r>
       <r>   -13.1899     0.0000    10.0000 </r>
       <r>   -13.1083     0.0000    10.0000 </r>
       <r>   -13.0268     0.0000    10.0000 </r>
       <r>   -12.9452     0.0000    10.0000 </r>
       <r>   -12.8636     0.0000    10.0000 </r>
       <r>   -12.7821     0.0000    10.0000 </r>
       <r>   -12.7005     0.0000    10.0000 </r>
       <r>   -12.6189     0.0000    10.0000 </r>
       <r>   -12.5373     0.0040    10.0003 </r>
       <r>   -12.4558     2.4257    10.1982 </r>
       <r>   -12.3742    18.3188    11.6925 </r>
       <r>   -12.2926     3.7583    11.9991 </r>
       <r>   -12.2110     0.0107    12.0000 </r>
       <r>   -12.1295     0.0000    12.0000 </r>
       <r>   -12.0479     0.0000    12.0000 </r>
       <r>   -11.9663     0.0000    12.0000 </r>
       <r>   -11.8847     0.0000    12.0000 </r>
       <r>   -11.8032     0.0000    12.0000 </r>
       <r>   -11.7216     0.0000    12.0000 </r>
       <r>   -11.6400     0.0000    12.0000 </r>
       <r>   -11.5584     0.0000    12.0000 </r>
       <r>   -11.4769     0.0000    12.0000 </r>
       <r>   -11.3953     0.0000    12.0000 </r>
       <r>   -11.3137     0.0000    12.0000 </r>
       <r>   -11.2321     0.0000    12.0000 </r>
       <r>   -11.1506     0.0000    12.0000 </r>
       <r>   -11.0690     0.0011    12.0001 </r>
       <r>   -10.9874     1.2893    12.1053 </r>
       <r>   -10.9058    17.1979    13.5082 </r>
       <r>   -10.8243     5.9957    13.9973 </r>
       <r>   -10.7427     0.0337    14.0000 </r>
       <r>   -10.6611     0.0000    14.0000 </r>
       <r>   -10.5795     0.0000    14.0000 </r>
       <r>   -10.4980     0.0000    14.0000 </r>
       <r>   -10.4164     0.0005    14.0000 </r>
       <r>   -10.3348     0.9270    14.0757 </r>
       <r>   -10.2533    16.2895    15.4045 </r>
       <r>   -10.1717     7.2455    15.9955 </r>
       <r>   -10.0901     1.0606    16.0820 </r>
       <r>   -10.0085    16.5260    17.4301 </r>
       <r>    -9.9270     6.9366    17.9960 </r>
       <r>    -9.8454     0.0494    18.0000 </r>
       <r>    -9.7638     0.0000    18.0000 </r>
       <r>    -9.6822     0.0000    18.0000 </r>
       <r>    -9.6007     0.0000    18.0000 </r>
       <r>    -9.5191     0.0002    18.0000 </r>
       <r>    -9.4375     0.6041    18.0493 </r>
       <r>    -9.3559    14.9286    19.2671 </r>
       <r>    -9.2744     8.8856    19.9919 </r>
       <r>    -9.1928     0.0991    20.0000 </r>
       <r>    -9.1112     0.0000    20.0000 </r>
       <r>    -9.0296     0.0000    20.0000 </r>
       <r>    -8.9481     0.0000    20.0000 </r>
       <r>    -8.8665     0.0001    20.0000 </r>
       <r>    -8.7849     0.4049    20.0330 </r>
       <r>    -8.7033    13.5630    21.1394 </r>
       <r>    -8.6218    10.3898    21.9870 </r>
       <r>    -8.5402     0.1597    22.0000 </r>
       <r>    -8.4586     0.0000    22.0000 </r>
       <r>    -8.3770     0.0000    22.0000 </r>
       <r>    -8.2955     0.0000    22.0000 </r>
       <r>    -8.2139     0.0000    22.0000 </r>
       <r>    -8.1323     0.0000    22.0000 </r>
       <r>    -8.0508     0.0521    22.0043 </r>
       <r>    -7.9692     7.0743    22.5813 </r>
       <r>    -7.8876    16.4212    23.9209 </r>
       <r>    -7.8060     0.9693    24.0000 </r>
       <r>    -7.7245     0.0006    24.0000 </r>
       <r>    -7.6429     0.0000    24.0000 </r>
       <r>    -7.5613     0.0350    24.0029 </r>
       <r>    -7.4797     6.0822    24.4990 </r>
       <r>    -7.3982    17.1396    25.8972 </r>
       <r>    -7.3166     1.2598    25.9999 </r>
       <r>    -7.2350     0.0010    26.0000 </r>
       <r>    -7.1534     0.0000    26.0000 </r>
       <r>    -7.0719     0.0000    26.0000 </r>
       <r>    -6.9903     0.0000    26.0000 </r>
       <r>    -6.9087     0.0000    26.0000 </r>
       <r>    -6.8271     0.0000    26.0000 </r>
       <r>    -6.7456     0.0000    26.0000 </r>
       <r>    -6.6640     0.0000    26.0000 </r>
       <r>    -6.5824     0.0000    26.0000 </r>
       <r>    -6.5008     0.0000    26.0000 </r>
       <r>    -6.4193     0.0000    26.0000 </r>
       <r>    -6.3377     0.0000    26.0000 </r>
       <r>    -6.2561     0.0002    26.0000 </r>
       <r>    -6.1745     0.5410    26.0441 </r>
       <r>    -6.0930    14.5576    27.2317 </r>
       <r>    -6.0114     9.3051    27.9907 </r>
       <r>    -5.9298     0.1137    28.0000 </r>
       <r>    -5.8483     0.0018    28.0001 </r>
       <r>    -5.7667     1.6804    28.1372 </r>
       <r>    -5.6851    17.7895    29.5884 </r>
       <r>    -5.6035     5.0243    29.9982 </r>
       <r>    -5.5220     0.0216    30.0000 </r>
       <r>    -5.4404     0.0000    30.0000 </r>
       <r>    -5.3588     0.0000    30.0000 </r>
       <r>    -5.2772     0.0000    30.0000 </r>
       <r>    -5.1957     0.0000    30.0000 </r>
       <r>    -5.1141     0.0000    30.0000 </r>
       <r>    -5.0325     0.0000    30.0000 </r>
       <r>    -4.9509     0.0000    30.0000 </r>
       <r>    -4.8694     0.0000    30.0000 </r>
       <r>    -4.7878     0.0000    30.0000 </r>
       <r>    -4.7062     0.0000    30.0000 </r>
       <r>    -4.6246     0.0000    30.0000 </r>
       <r>    -4.5431     0.0000    30.0000 </r>
       <r>    -4.4615     0.0000    30.0000 </r>
       <r>    -4.3799     0.0000    30.0000 </r>
       <r>    -4.2983     0.0000    30.0000 </r>
       <r>    -4.2168     0.0000    30.0000 </r>
       <r>    -4.1352     0.0000    30.0000 </r>
       <r>    -4.0536     0.0000    30.0000 </r>
       <r>    -3.9720     0.0000    30.0000 </r>
       <r>    -3.8905     0.0000    30.0000 </r>
       <r>    -3.8089     0.0000    30.0000 </r>
       <r>    -3.7273     0.0000    30.0000 </r>
       <r>    -3.6457     0.0000    30.0000 </r>
       <r>    -3.5642     0.0000    30.0000 </r>
       <r>    -3.4826     0.0000    30.0000 </r>
       <r>    -3.4010     0.0000    30.0000 </r>
       <r>    -3.3195     0.0000    30.0000 </r>
       <r>    -3.2379     0.0000    30.0000 </r>
       <r>    -3.1563     0.0000    30.0000 </r>
       <r>    -3.0747     0.0000    30.0000 </r>
       <r>    -2.9932     0.0000    30.0000 </r>
       <r>    -2.9116     0.0000    30.0000 </r>
       <r>    -2.8300     0.0000    30.0000 </r>
       <r>    -2.7484     0.0000    30.0000 </r>
       <r>    -2.6669     0.0000    30.0000 </r>
       <r>    -2.5853     0.0000    30.0000 </r>
       <r>    -2.5037     0.0000    30.0000 </r>
       <r>    -2.4221     0.0000    30.0000 </r>
       <r>    -2.3406     0.0000    30.0000 </r>
       <r>    -2.2590     0.0000    30.0000 </r>
       <r>    -2.1774     0.0000    30.0000 </r>
       <r>    -2.0958     0.0000    30.0000 </r>
       <r>    -2.0143     0.0000    30.0000 </r>
       <r>    -1.9327     0.0000    30.0000 </r>
       <r>    -1.8511     0.0000    30.0000 </r>
       <r>    -1.7695     0.0000    30.0000 </r>
       <r>    -1.6880     0.0000    30.0000 </r>
       <r>    -1.6064     0.0000    30.0000 </r>
       <r>    -1.5248     0.0000    30.0000 </r>
       <r>    -1.4432     0.0000    30.0000 </r>
       <r>    -1.3617     0.0000    30.0000 </r>
       <r>    -1.2801     0.0000    30.0000 </r>
       <r>    -1.1985     0.0000    30.0000 </r>
       <r>    -1.1170     0.0675    30.0055 </r>
       <r>    -1.0354     7.7722    30.6395 </r>
       <r>    -0.9538    15.8697    31.9341 </r>
       <r>    -0.8722     1.1257    32.0259 </r>
       <r>    -0.7907    12.7237    33.0638 </r>
       <r>    -0.7091    11.2683    33.9830 </r>
       <r>    -0.6275     0.2080    34.0000 </r>
       <r>    -0.5459     0.0603    34.0049 </r>
       <r>    -0.4644     7.4583    34.6133 </r>
       <r>    -0.3828    16.1218    35.9284 </r>
       <r>    -0.3012     0.8767    36.0000 </r>
       <r>    -0.2196     0.0005    36.0000 </r>
       <r>    -0.1381     0.0000    36.0000 </r>
       <r>    -0.0565     0.0000    36.0000 </r>
       <r>     0.0251     0.0000    36.0000 </r>
       <r>     0.1067     0.0000    36.0000 </r>
       <r>     0.1882     0.0000    36.0000 </r>
       <r>     0.2698     0.0000    36.0000 </r>
       <r>     0.3514     0.0000    36.0000 </r>
       <r>     0.4330     0.0000    36.0000 </r>
       <r>     0.5145     0.0001    36.0000 </r>
       <r>     0.5961     0.3062    36.0250 </r>
       <r>     0.6777    12.6000    37.0528 </r>
       <r>     0.7593    14.4951    38.2352 </r>
       <r>     0.8408    27.6950    40.4944 </r>
       <r>     0.9224    31.8284    43.0908 </r>
       <r>     1.0040    28.3231    45.4012 </r>
       <r>     1.0855     7.2878    45.9957 </r>
       <r>     1.1671     0.0523    46.0000 </r>
       <r>     1.2487     0.0000    46.0000 </r>
       <r>     1.3303     0.0203    46.0017 </r>
       <r>     1.4118     4.9012    46.4015 </r>
       <r>     1.4934    17.8549    47.8580 </r>
       <r>     1.5750     1.7392    47.9998 </r>
       <r>     1.6566     0.0020    48.0000 </r>
       <r>     1.7381     0.0000    48.0000 </r>
       <r>     1.8197     0.0000    48.0000 </r>
       <r>     1.9013     0.0000    48.0000 </r>
       <r>     1.9829     0.0000    48.0000 </r>
       <r>     2.0644     0.0000    48.0000 </r>
       <r>     2.1460     0.0000    48.0000 </r>
       <r>     2.2276     0.0000    48.0000 </r>
       <r>     2.3092     0.0000    48.0000 </r>
       <r>     2.3907     0.0000    48.0000 </r>
       <r>     2.4723     0.0000    48.0000 </r>
       <r>     2.5539     0.0000    48.0000 </r>
      </set>
     </set>
    </array>
   </total>
  </dos>
 </calculation>
 <structure name="finalpos" >
  <crystal>
   <varray name="basis" >
    <v>      10.58354422       0.00000000       0.00000000 </v>
    <v>       0.00000000      10.58354422       0.00000000 </v>
    <v>       0.00000000       0.00000000      10.58354422 </v>
   </varray>
   <i name="volume">   1185.47769178 </i>
   <varray name="rec_basis" >
    <v>       0.09448631       0.00000000       0.00000000 </v>
    <v>       0.00000000       0.09448631       0.00000000 </v>
    <v>       0.00000000       0.00000000       0.09448631 </v>
   </varray>
  </crystal>
  <varray name="positions" >
   <v>       0.49821365       0.63053275       0.49791580 </v>
   <v>       0.38770900       0.56031695       0.49522780 </v>
   <v>       0.38520180       0.43406320       0.49748565 </v>
   <v>       0.50049575       0.37344440       0.50170520 </v>
   <v>       0.61959565       0.44064975       0.49696500 </v>
   <v>       0.62266750       0.57394015       0.50118910 </v>
   <v>       0.49533160       0.73047250       0.51768565 </v>
   <v>       0.29355840       0.60604235       0.49251510 </v>
   <v>       0.28931975       0.38429265       0.49909105 </v>
   <v>       0.49129620       0.27363135       0.51173510 </v>
   <v>       0.70299275       0.37664860       0.49530590 </v>
   <v>       0.71361805       0.61596540       0.49317865 </v>
  </varray>
 </structure>
</modeling>
