<?xml version="1.0" encoding="ISO-8859-1"?>
<modeling>
 <generator>
  <i name="program" type="string">vasp </i>
  <i name="version" type="string">5.4.4.18Apr17-6-g9f103f2a35  </i>
  <i name="subversion" type="string">(build Oct  7 2019 15:10:45) complex            parallel </i>
  <i name="platform" type="string">LinuxGNU </i>
  <i name="date" type="string">2021 11 08 </i>
  <i name="time" type="string">19:17:06 </i>
 </generator>
 <incar>
  <i type="string" name="SYSTEM">mos2</i>
  <i type="int" name="ISTART">     0</i>
  <i type="string" name="PREC">accurate</i>
  <i type="string" name="ALGO"> Normal</i>
  <i type="int" name="NSIM">     4</i>
  <i type="int" name="NELM">  1000</i>
  <i type="int" name="NELMIN">     2</i>
  <i type="int" name="IBRION">    -1</i>
  <i name="EDIFF">      0.00000100</i>
  <i type="int" name="NSW">     0</i>
  <i name="ENCUT">    600.00000000</i>
  <i type="string" name="LREAL"> Auto</i>
  <i type="int" name="ISMEAR">     0</i>
  <i name="SIGMA">      0.05000000</i>
  <i type="logical" name="LWAVE"> F  </i>
  <i type="logical" name="LCHARG"> T  </i>
  <v type="int" name="KPOINT_BSE">    -1     0     0     0</v>
  <i type="int" name="NELM">  1000</i>
 </incar>
 <structure name="primitive_cell" >
  <crystal>
   <varray name="basis" >
    <v>       9.55219900       0.00000000       0.00000000 </v>
    <v>      -4.77610000       8.27244700       0.00000000 </v>
    <v>       0.00000000       0.00000000      18.12711300 </v>
   </varray>
   <i name="volume">   1432.40555618 </i>
   <varray name="rec_basis" >
    <v>       0.10468794       0.06044161      -0.00000000 </v>
    <v>       0.00000000       0.12088322       0.00000000 </v>
    <v>       0.00000000      -0.00000000       0.05516598 </v>
   </varray>
  </crystal>
  <varray name="positions" >
   <v>       0.00331683      -0.00100135      -0.49950845 </v>
   <v>      -0.11045492      -0.22314896      -0.41853759 </v>
   <v>      -0.10411276       0.10869002      -0.41269631 </v>
   <v>       0.22189771       0.11414887       0.41352580 </v>
   <v>       0.22478564       0.10716819      -0.41298258 </v>
   <v>      -0.10518655      -0.21647567       0.40908474 </v>
   <v>      -0.12294433       0.10691505       0.41661037 </v>
   <v>       0.32818816       0.33071090       0.49987667 </v>
   <v>      -0.00285738      -0.33450734       0.49662556 </v>
   <v>       0.33457207      -0.00037634      -0.49930743 </v>
   <v>      -0.32966025      -0.33041556       0.49690677 </v>
   <v>      -0.00035327       0.33421168       0.49976273 </v>
   <v>      -0.34139296      -0.00195122      -0.49670851 </v>
   <v>       0.21410650      -0.22840921      -0.41774568 </v>
   <v>       0.22047189      -0.22575731       0.41115973 </v>
   <v>       0.22003468       0.44685904      -0.41539476 </v>
   <v>      -0.44080321      -0.21866603       0.41113026 </v>
   <v>       0.22340865       0.44534258       0.40966814 </v>
   <v>      -0.44941317      -0.23105640      -0.41384057 </v>
   <v>      -0.44687590       0.43915561       0.41735758 </v>
   <v>      -0.10932262       0.44849743       0.41672230 </v>
   <v>      -0.43534678       0.11682737       0.41909010 </v>
   <v>      -0.44475560       0.45157644      -0.41286801 </v>
   <v>      -0.10001231       0.44955309      -0.41280499 </v>
   <v>      -0.44304666       0.10735619      -0.41285330 </v>
   <v>       0.33155602      -0.33289890       0.49883928 </v>
   <v>      -0.32752379       0.33670398      -0.49469020 </v>
  </varray>
 </structure>
 <varray name="primitive_index" >
  <v type="int" >        1 </v>
  <v type="int" >       26 </v>
  <v type="int" >       22 </v>
  <v type="int" >       12 </v>
  <v type="int" >       11 </v>
  <v type="int" >       27 </v>
  <v type="int" >       23 </v>
  <v type="int" >        2 </v>
  <v type="int" >        9 </v>
  <v type="int" >        4 </v>
  <v type="int" >        8 </v>
  <v type="int" >        7 </v>
  <v type="int" >        3 </v>
  <v type="int" >       15 </v>
  <v type="int" >       16 </v>
  <v type="int" >       13 </v>
  <v type="int" >       18 </v>
  <v type="int" >       14 </v>
  <v type="int" >       20 </v>
  <v type="int" >       21 </v>
  <v type="int" >       25 </v>
  <v type="int" >       17 </v>
  <v type="int" >       19 </v>
  <v type="int" >       24 </v>
  <v type="int" >       10 </v>
  <v type="int" >        5 </v>
  <v type="int" >        6 </v>
 </varray>
 <kpoints>
  <generation param="Gamma">
   <v type="int" name="divisions">       6        6        1 </v>
   <v name="usershift">      0.00000000       0.00000000       0.00000000 </v>
   <v name="genvec1">      0.16666667       0.00000000       0.00000000 </v>
   <v name="genvec2">      0.00000000       0.16666667       0.00000000 </v>
   <v name="genvec3">      0.00000000       0.00000000       1.00000000 </v>
   <v name="shift">      0.00000000       0.00000000       0.00000000 </v>
  </generation>
  <varray name="kpointlist" >
   <v>       0.00000000       0.00000000       0.00000000 </v>
   <v>       0.16666667       0.00000000       0.00000000 </v>
   <v>       0.33333333       0.00000000       0.00000000 </v>
   <v>       0.50000000       0.00000000       0.00000000 </v>
   <v>       0.00000000       0.16666667       0.00000000 </v>
   <v>       0.16666667       0.16666667       0.00000000 </v>
   <v>       0.33333333       0.16666667       0.00000000 </v>
   <v>       0.50000000       0.16666667       0.00000000 </v>
   <v>      -0.33333333       0.16666667       0.00000000 </v>
   <v>      -0.16666667       0.16666667       0.00000000 </v>
   <v>       0.00000000       0.33333333       0.00000000 </v>
   <v>       0.16666667       0.33333333       0.00000000 </v>
   <v>       0.33333333       0.33333333       0.00000000 </v>
   <v>       0.50000000       0.33333333       0.00000000 </v>
   <v>      -0.33333333       0.33333333       0.00000000 </v>
   <v>      -0.16666667       0.33333333       0.00000000 </v>
   <v>       0.00000000       0.50000000       0.00000000 </v>
   <v>       0.16666667       0.50000000       0.00000000 </v>
   <v>       0.33333333       0.50000000       0.00000000 </v>
   <v>       0.50000000       0.50000000       0.00000000 </v>
  </varray>
  <varray name="weights" >
   <v>       0.02777778 </v>
   <v>       0.05555556 </v>
   <v>       0.05555556 </v>
   <v>       0.02777778 </v>
   <v>       0.05555556 </v>
   <v>       0.05555556 </v>
   <v>       0.05555556 </v>
   <v>       0.05555556 </v>
   <v>       0.05555556 </v>
   <v>       0.05555556 </v>
   <v>       0.05555556 </v>
   <v>       0.05555556 </v>
   <v>       0.05555556 </v>
   <v>       0.05555556 </v>
   <v>       0.05555556 </v>
   <v>       0.05555556 </v>
   <v>       0.02777778 </v>
   <v>       0.05555556 </v>
   <v>       0.05555556 </v>
   <v>       0.02777778 </v>
  </varray>
 </kpoints>
 <parameters>
  <separator name="general" >
   <i type="string" name="SYSTEM">mos2</i>
   <i type="logical" name="LCOMPAT"> F  </i>
  </separator>
  <separator name="electronic" >
   <i type="string" name="PREC">accura</i>
   <i name="ENMAX">    600.00000000</i>
   <i name="ENAUG">    446.01400000</i>
   <i name="EDIFF">      0.00000100</i>
   <i type="int" name="IALGO">    38</i>
   <i type="int" name="IWAVPR">    10</i>
   <i type="int" name="NBANDS">   140</i>
   <i name="NELECT">    234.00000000</i>
   <i type="int" name="TURBO">     0</i>
   <i type="int" name="IRESTART">     0</i>
   <i type="int" name="NREBOOT">     0</i>
   <i type="int" name="NMIN">     0</i>
   <i name="EREF">      0.00000000</i>
   <separator name="electronic smearing" >
    <i type="int" name="ISMEAR">     0</i>
    <i name="SIGMA">      0.05000000</i>
    <i name="KSPACING">      0.50000000</i>
    <i type="logical" name="KGAMMA"> T  </i>
   </separator>
   <separator name="electronic projectors" >
    <i type="logical" name="LREAL"> T  </i>
    <v name="ROPT">     -0.00025000     -0.00025000</v>
    <i type="int" name="LMAXPAW">  -100</i>
    <i type="int" name="LMAXMIX">     2</i>
    <i type="logical" name="NLSPLINE"> F  </i>
   </separator>
   <separator name="electronic startup" >
    <i type="int" name="ISTART">     0</i>
    <i type="int" name="ICHARG">     2</i>
    <i type="int" name="INIWAV">     1</i>
   </separator>
   <separator name="electronic spin" >
    <i type="int" name="ISPIN">     1</i>
    <i type="logical" name="LNONCOLLINEAR"> F  </i>
    <v name="MAGMOM">      1.00000000      1.00000000      1.00000000      1.00000000      1.00000000      1.00000000      1.00000000      1.00000000      1.00000000      1.00000000      1.00000000      1.00000000      1.00000000      1.00000000      1.00000000      1.00000000      1.00000000      1.00000000      1.00000000      1.00000000
      1.00000000      1.00000000      1.00000000      1.00000000      1.00000000      1.00000000      1.00000000</v>
    <i name="NUPDOWN">     -1.00000000</i>
    <i type="logical" name="LSORBIT"> F  </i>
    <v name="SAXIS">      0.00000000      0.00000000      1.00000000</v>
    <i type="logical" name="LSPIRAL"> F  </i>
    <v name="QSPIRAL">      0.00000000      0.00000000      0.00000000</v>
    <i type="logical" name="LZEROZ"> F  </i>
   </separator>
   <separator name="electronic exchange-correlation" >
    <i type="logical" name="LASPH"> F  </i>
    <i type="logical" name="LMETAGGA"> F  </i>
   </separator>
   <separator name="electronic convergence" >
    <i type="int" name="NELM">  1000</i>
    <i type="int" name="NELMDL">    -5</i>
    <i type="int" name="NELMIN">     2</i>
    <i name="ENINI">    600.00000000</i>
    <separator name="electronic convergence detail" >
     <i type="logical" name="LDIAG"> T  </i>
     <i type="logical" name="LSUBROT"> F  </i>
     <i name="WEIMIN">      0.00000000</i>
     <i name="EBREAK">      0.00000000</i>
     <i name="DEPER">      0.30000000</i>
     <i type="int" name="NRMM">     4</i>
     <i name="TIME">      0.40000000</i>
    </separator>
   </separator>
   <separator name="electronic mixer" >
    <i name="AMIX">      0.40000000</i>
    <i name="BMIX">      1.00000000</i>
    <i name="AMIN">      0.10000000</i>
    <i name="AMIX_MAG">      1.60000000</i>
    <i name="BMIX_MAG">      1.00000000</i>
    <separator name="electronic mixer details" >
     <i type="int" name="IMIX">     4</i>
     <i type="logical" name="MIXFIRST"> F  </i>
     <i type="int" name="MAXMIX">   -45</i>
     <i name="WC">    100.00000000</i>
     <i type="int" name="INIMIX">     1</i>
     <i type="int" name="MIXPRE">     1</i>
     <i type="int" name="MREMOVE">     5</i>
    </separator>
   </separator>
   <separator name="electronic dipolcorrection" >
    <i type="logical" name="LDIPOL"> F  </i>
    <i type="logical" name="LMONO"> F  </i>
    <i type="int" name="IDIPOL">     0</i>
    <i name="EPSILON">      1.00000000</i>
    <v name="DIPOL">   -100.00000000   -100.00000000   -100.00000000</v>
    <i name="EFIELD">      0.00000000</i>
   </separator>
  </separator>
  <separator name="grids" >
   <i type="int" name="NGX">    80</i>
   <i type="int" name="NGY">    80</i>
   <i type="int" name="NGZ">   150</i>
   <i type="int" name="NGXF">   160</i>
   <i type="int" name="NGYF">   160</i>
   <i type="int" name="NGZF">   300</i>
   <i type="logical" name="ADDGRID"> F  </i>
  </separator>
  <separator name="ionic" >
   <i type="int" name="NSW">     0</i>
   <i type="int" name="IBRION">    -1</i>
   <i type="int" name="MDALGO">     0</i>
   <i type="int" name="ISIF">     2</i>
   <i name="PSTRESS">      0.00000000</i>
   <i name="EDIFFG">      0.00001000</i>
   <i type="int" name="NFREE">     0</i>
   <i name="POTIM">      0.50000000</i>
   <i name="SMASS">     -3.00000000</i>
   <i name="SCALEE">      1.00000000</i>
  </separator>
  <separator name="ionic md" >
   <i name="TEBEG">      0.00010000</i>
   <i name="TEEND">      0.00010000</i>
   <i type="int" name="NBLOCK">     1</i>
   <i type="int" name="KBLOCK">     1</i>
   <i type="int" name="NPACO">   256</i>
   <i name="APACO">     16.00000000</i>
  </separator>
  <separator name="symmetry" >
   <i type="int" name="ISYM">     2</i>
   <i name="SYMPREC">      0.00001000</i>
  </separator>
  <separator name="dos" >
   <i type="int" name="LORBIT">     0</i>
   <v name="RWIGS">     -1.00000000     -1.00000000</v>
   <i type="int" name="NEDOS">   301</i>
   <i name="EMIN">     10.00000000</i>
   <i name="EMAX">    -10.00000000</i>
   <i name="EFERMI">      0.00000000</i>
  </separator>
  <separator name="writing" >
   <i type="int" name="NWRITE">     2</i>
   <i type="logical" name="LWAVE"> F  </i>
   <i type="logical" name="LDOWNSAMPLE"> F  </i>
   <i type="logical" name="LCHARG"> T  </i>
   <i type="logical" name="LPARD"> F  </i>
   <i type="logical" name="LVTOT"> F  </i>
   <i type="logical" name="LVHAR"> F  </i>
   <i type="logical" name="LELF"> F  </i>
   <i type="logical" name="LOPTICS"> F  </i>
   <v name="STM">      0.00000000      0.00000000      0.00000000      0.00000000      0.00000000      0.00000000      0.00000000</v>
  </separator>
  <separator name="performance" >
   <i type="int" name="NPAR">     4</i>
   <i type="int" name="NSIM">     4</i>
   <i type="int" name="NBLK">    -1</i>
   <i type="logical" name="LPLANE"> T  </i>
   <i type="logical" name="LSCALAPACK"> T  </i>
   <i type="logical" name="LSCAAWARE"> F  </i>
   <i type="logical" name="LSCALU"> F  </i>
   <i type="logical" name="LASYNC"> F  </i>
   <i type="logical" name="LORBITALREAL"> F  </i>
  </separator>
  <separator name="miscellaneous" >
   <i type="int" name="IDIOT">     3</i>
   <i type="int" name="ISPECIAL">     0</i>
   <i type="logical" name="LMUSIC"> F  </i>
   <v name="POMASS">     95.94000000     32.06600000</v>
   <v name="DARWINR">      0.00000000      0.00000000</v>
   <v name="DARWINV">      1.00000000      1.00000000</v>
   <i type="logical" name="LCORR"> T  </i>
  </separator>
  <i type="logical" name="GGA_COMPAT"> T  </i>
  <i type="logical" name="LBERRY"> F  </i>
  <i type="int" name="ICORELEVEL">     0</i>
  <i type="logical" name="LDAU"> F  </i>
  <i type="int" name="I_CONSTRAINED_M">     0</i>
  <separator name="electronic exchange-correlation" >
   <i type="string" name="GGA">--</i>
   <i type="int" name="VOSKOWN">     0</i>
   <i type="logical" name="LHFCALC"> F  </i>
   <i type="string" name="PRECFOCK"></i>
   <i type="logical" name="LSYMGRAD"> F  </i>
   <i type="logical" name="LHFONE"> F  </i>
   <i type="logical" name="LRHFCALC"> F  </i>
   <i type="logical" name="LTHOMAS"> F  </i>
   <i type="logical" name="LMODELHF"> F  </i>
   <i name="ENCUT4O">     -1.00000000</i>
   <i type="int" name="EXXOEP">     0</i>
   <i type="int" name="FOURORBIT">     0</i>
   <i name="AEXX">      0.00000000</i>
   <i name="HFALPHA">      0.00000000</i>
   <i name="MCALPHA">      0.00000000</i>
   <i name="ALDAX">      1.00000000</i>
   <i name="AGGAX">      1.00000000</i>
   <i name="ALDAC">      1.00000000</i>
   <i name="AGGAC">      1.00000000</i>
   <i type="int" name="NKREDX">     1</i>
   <i type="int" name="NKREDY">     1</i>
   <i type="int" name="NKREDZ">     1</i>
   <i type="logical" name="SHIFTRED"> F  </i>
   <i type="logical" name="ODDONLY"> F  </i>
   <i type="logical" name="EVENONLY"> F  </i>
   <i type="int" name="LMAXFOCK">     0</i>
   <i type="int" name="NMAXFOCKAE">     0</i>
   <i type="logical" name="LFOCKAEDFT"> F  </i>
   <i name="HFSCREEN">      0.00000000</i>
   <i name="HFSCREENC">      0.00000000</i>
   <i type="int" name="NBANDSGWLOW">     0</i>
  </separator>
  <separator name="vdW DFT" >
   <i type="logical" name="LUSE_VDW"> F  </i>
   <i name="Zab_VDW">     -0.84910000</i>
   <i name="PARAM1">      0.12340000</i>
   <i name="PARAM2">      1.00000000</i>
   <i name="PARAM3">      0.00000000</i>
  </separator>
  <separator name="model GW" >
   <i type="int" name="MODEL_GW">     0</i>
   <i name="MODEL_EPS0">     31.83123458</i>
   <i name="MODEL_ALPHA">      1.00000000</i>
  </separator>
  <separator name="linear response parameters" >
   <i type="logical" name="LEPSILON"> F  </i>
   <i type="logical" name="LRPA"> F  </i>
   <i type="logical" name="LNABLA"> F  </i>
   <i type="logical" name="LVEL"> F  </i>
   <i type="int" name="KINTER">     0</i>
   <i name="CSHIFT">      0.10000000</i>
   <i name="OMEGAMAX">     -1.00000000</i>
   <i name="DEG_THRESHOLD">      0.00200000</i>
   <i name="RTIME">     -0.10000000</i>
   <i name="WPLASMAI">      0.00000000</i>
   <v name="DFIELD">      0.00000000      0.00000000      0.00000000</v>
   <v name="WPLASMA">      0.00000000      0.00000000      0.00000000      0.00000000      0.00000000      0.00000000      0.00000000      0.00000000      0.00000000</v>
  </separator>
  <separator name="orbital magnetization" >
   <i type="logical" name="NUCIND"> F  </i>
   <v name="MAGPOS">      0.00000000      0.00000000      0.00000000</v>
   <i type="logical" name="LNICSALL"> T  </i>
   <i type="logical" name="ORBITALMAG"> F  </i>
   <i type="logical" name="LMAGBLOCH"> F  </i>
   <i type="logical" name="LCHIMAG"> F  </i>
   <i type="logical" name="LGAUGE"> T  </i>
   <i type="int" name="MAGATOM">     0</i>
   <v name="MAGDIPOL">      0.00000000      0.00000000      0.00000000</v>
   <v name="AVECCONST">      0.00000000      0.00000000      0.00000000</v>
  </separator>
  <separator name="response functions" >
   <i type="logical" name="LADDER"> F  </i>
   <i type="logical" name="LRPAFORCE"> F  </i>
   <i type="logical" name="LFXC"> F  </i>
   <i type="logical" name="LHARTREE"> T  </i>
   <i type="int" name="IBSE">     0</i>
   <v type="int" name="KPOINT">    -1     0     0     0</v>
   <i type="logical" name="LTCTE"> F  </i>
   <i type="logical" name="LTETE"> F  </i>
   <i type="logical" name="LTRIPLET"> F  </i>
   <i type="logical" name="LFXCEPS"> F  </i>
   <i type="logical" name="LFXHEG"> F  </i>
   <i type="int" name="NATURALO">     2</i>
   <i type="logical" name="L2ORDER"> F  </i>
   <i type="logical" name="LMP2LT"> F  </i>
   <i type="logical" name="LUSEW"> F  </i>
   <i name="ENCUTGW">     -2.00000000</i>
   <i name="ENCUTGWSOFT">     -2.00000000</i>
   <i name="ENCUTLF">     -1.00000000</i>
   <i type="int" name="LMAXMP2">    -1</i>
   <i name="SCISSOR">      0.00000000</i>
   <i type="int" name="NOMEGA">     0</i>
   <i type="int" name="NOMEGAR">     0</i>
   <i type="int" name="NBANDSGW">    -1</i>
   <i type="int" name="NBANDSO">    -1</i>
   <i type="int" name="NBANDSV">    -1</i>
   <i type="int" name="NELM">  1000</i>
   <i type="int" name="NELMHF">     1</i>
   <i type="int" name="DIM">     3</i>
   <i type="int" name="ANTIRES">     0</i>
   <i name="OMEGAMAX">    -30.00000000</i>
   <i name="OMEGAMIN">    -30.00000000</i>
   <i name="OMEGATL">   -200.00000000</i>
   <i type="int" name="OMEGAGRID">   140</i>
   <i name="CSHIFT">     -0.10000000</i>
   <i type="logical" name="SELFENERGY"> F  </i>
   <i type="logical" name="LSPECTRAL"> F  </i>
   <i type="logical" name="LSPECTRALGW"> F  </i>
   <i type="logical" name="LSINGLES"> F  </i>
   <i type="logical" name="LFERMIGW"> F  </i>
   <i type="logical" name="ODDONLYGW"> F  </i>
   <i type="logical" name="EVENONLYGW"> F  </i>
   <i type="int" name="NKREDLFX">     1</i>
   <i type="int" name="NKREDLFY">     1</i>
   <i type="int" name="NKREDLFZ">     1</i>
   <i type="int" name="MAXMEM">  2800</i>
   <i type="int" name="TELESCOPE">     0</i>
   <i type="int" name="TAUPAR">     1</i>
   <i type="int" name="OMEGAPAR">    -1</i>
   <i name="LAMBDA">      1.00000000</i>
  </separator>
  <separator name="External order field" >
   <i name="OFIELD_KAPPA">      0.00000000</i>
   <v name="OFIELD_K">      0.00000000      0.00000000      0.00000000</v>
   <i name="OFIELD_Q6_NEAR">      0.00000000</i>
   <i name="OFIELD_Q6_FAR">      0.00000000</i>
   <i name="OFIELD_A">      0.00000000</i>
  </separator>
 </parameters>
 <atominfo>
  <atoms>      27 </atoms>
  <types>       2 </types>
  <array name="atoms" >
   <dimension dim="1">ion</dimension>
   <field type="string">element</field>
   <field type="int">atomtype</field>
   <set>
    <rc><c>Mo</c><c>   1</c></rc>
    <rc><c>Mo</c><c>   1</c></rc>
    <rc><c>Mo</c><c>   1</c></rc>
    <rc><c>Mo</c><c>   1</c></rc>
    <rc><c>Mo</c><c>   1</c></rc>
    <rc><c>Mo</c><c>   1</c></rc>
    <rc><c>Mo</c><c>   1</c></rc>
    <rc><c>Mo</c><c>   1</c></rc>
    <rc><c>Mo</c><c>   1</c></rc>
    <rc><c>S </c><c>   2</c></rc>
    <rc><c>S </c><c>   2</c></rc>
    <rc><c>S </c><c>   2</c></rc>
    <rc><c>S </c><c>   2</c></rc>
    <rc><c>S </c><c>   2</c></rc>
    <rc><c>S </c><c>   2</c></rc>
    <rc><c>S </c><c>   2</c></rc>
    <rc><c>S </c><c>   2</c></rc>
    <rc><c>S </c><c>   2</c></rc>
    <rc><c>S </c><c>   2</c></rc>
    <rc><c>S </c><c>   2</c></rc>
    <rc><c>S </c><c>   2</c></rc>
    <rc><c>S </c><c>   2</c></rc>
    <rc><c>S </c><c>   2</c></rc>
    <rc><c>S </c><c>   2</c></rc>
    <rc><c>S </c><c>   2</c></rc>
    <rc><c>S </c><c>   2</c></rc>
    <rc><c>S </c><c>   2</c></rc>
   </set>
  </array>
  <array name="atomtypes" >
   <dimension dim="1">type</dimension>
   <field type="int">atomspertype</field>
   <field type="string">element</field>
   <field>mass</field>
   <field>valence</field>
   <field type="string">pseudopotential</field>
   <set>
    <rc><c>   9</c><c>Mo</c><c>     95.94000000</c><c>     14.00000000</c><c>  PAW_PBE Mo_sv 02Feb2006               </c></rc>
    <rc><c>  18</c><c>S </c><c>     32.06600000</c><c>      6.00000000</c><c>  PAW_PBE S 06Sep2000                   </c></rc>
   </set>
  </array>
 </atominfo>
 <structure name="initialpos" >
  <crystal>
   <varray name="basis" >
    <v>       9.55219900       0.00000000       0.00000000 </v>
    <v>      -4.77610000       8.27244700       0.00000000 </v>
    <v>       0.00000000       0.00000000      18.12711300 </v>
   </varray>
   <i name="volume">   1432.40555618 </i>
   <varray name="rec_basis" >
    <v>       0.10468794       0.06044161      -0.00000000 </v>
    <v>       0.00000000       0.12088322       0.00000000 </v>
    <v>       0.00000000      -0.00000000       0.05516598 </v>
   </varray>
  </crystal>
  <varray name="positions" >
   <v>       0.00331683       0.99899865       0.50049155 </v>
   <v>       0.32818816       0.33071090       0.49987667 </v>
   <v>       0.65860704       0.99804878       0.50329149 </v>
   <v>       0.33457207       0.99962366       0.50069257 </v>
   <v>       0.33155602       0.66710110       0.49883928 </v>
   <v>       0.67247621       0.33670398       0.50530980 </v>
   <v>       0.99964673       0.33421168       0.49976273 </v>
   <v>       0.67033975       0.66958444       0.49690677 </v>
   <v>       0.99714262       0.66549266       0.49662556 </v>
   <v>       0.55695334       0.10735619       0.58714670 </v>
   <v>       0.22478564       0.10716819       0.58701742 </v>
   <v>       0.22189771       0.11414887       0.41352580 </v>
   <v>       0.22003468       0.44685904       0.58460524 </v>
   <v>       0.22340865       0.44534258       0.40966814 </v>
   <v>       0.21410650       0.77159079       0.58225432 </v>
   <v>       0.22047189       0.77424269       0.41115973 </v>
   <v>       0.56465322       0.11682737       0.41909010 </v>
   <v>       0.55919679       0.78133397       0.41113026 </v>
   <v>       0.55524440       0.45157644       0.58713199 </v>
   <v>       0.55058683       0.76894360       0.58615943 </v>
   <v>       0.55312410       0.43915561       0.41735758 </v>
   <v>       0.89588724       0.10869002       0.58730369 </v>
   <v>       0.87705567       0.10691505       0.41661037 </v>
   <v>       0.89998769       0.44955309       0.58719501 </v>
   <v>       0.89067738       0.44849743       0.41672230 </v>
   <v>       0.88954508       0.77685104       0.58146241 </v>
   <v>       0.89481345       0.78352433       0.40908474 </v>
  </varray>
 </structure>
 <calculation>
  <scstep>
   <time name="dav">   84.23   84.68</time>
   <time name="total">   84.79   85.25</time>
   <energy>
    <i name="alphaZ">    267.51052480 </i>
    <i name="ewald">  40385.57080757 </i>
    <i name="hartreedc"> -59453.94850339 </i>
    <i name="XCdc">    822.57138600 </i>
    <i name="pawpsdc">  17395.10119161 </i>
    <i name="pawaedc"> -17171.31696658 </i>
    <i name="eentropy">     -0.01639416 </i>
    <i name="bandstr">  -1788.30869856 </i>
    <i name="atom">  21743.34108040 </i>
    <i name="e_fr_energy">   2200.50442768 </i>
    <i name="e_wo_entrp">   2200.52082185 </i>
    <i name="e_0_energy">   2200.51262477 </i>
   </energy>
  </scstep>
  <scstep>
   <time name="dav">   89.04   89.57</time>
   <time name="total">   89.04   89.57</time>
   <energy>
    <i name="e_fr_energy">      6.20825827 </i>
    <i name="e_wo_entrp">      6.20825827 </i>
    <i name="e_0_energy">      6.20825827 </i>
   </energy>
  </scstep>
  <scstep>
   <time name="dav">   79.26   79.67</time>
   <time name="total">   79.26   79.67</time>
   <energy>
    <i name="e_fr_energy">   -201.23072436 </i>
    <i name="e_wo_entrp">   -201.23072436 </i>
    <i name="e_0_energy">   -201.23072436 </i>
   </energy>
  </scstep>
  <scstep>
   <time name="dav">   87.95   88.38</time>
   <time name="total">   87.95   88.39</time>
   <energy>
    <i name="e_fr_energy">   -209.52431047 </i>
    <i name="e_wo_entrp">   -209.52431047 </i>
    <i name="e_0_energy">   -209.52431047 </i>
   </energy>
  </scstep>
  <scstep>
   <time name="dav">   93.86   94.36</time>
   <time name="total">  100.19  100.70</time>
   <energy>
    <i name="e_fr_energy">   -209.78290572 </i>
    <i name="e_wo_entrp">   -209.78290572 </i>
    <i name="e_0_energy">   -209.78290572 </i>
   </energy>
  </scstep>
  <scstep>
   <time name="dav">   77.92   78.31</time>
   <time name="total">   84.82   85.23</time>
   <energy>
    <i name="e_fr_energy">   -199.56453389 </i>
    <i name="e_wo_entrp">   -199.56453389 </i>
    <i name="e_0_energy">   -199.56453389 </i>
   </energy>
  </scstep>
  <scstep>
   <time name="dav">   76.77   77.16</time>
   <time name="total">   83.60   84.01</time>
   <energy>
    <i name="e_fr_energy">   -197.62068301 </i>
    <i name="e_wo_entrp">   -197.62068301 </i>
    <i name="e_0_energy">   -197.62068301 </i>
   </energy>
  </scstep>
  <scstep>
   <time name="dav">   82.08   82.52</time>
   <time name="total">   88.89   89.35</time>
   <energy>
    <i name="e_fr_energy">   -196.11793987 </i>
    <i name="e_wo_entrp">   -196.11793987 </i>
    <i name="e_0_energy">   -196.11793987 </i>
   </energy>
  </scstep>
  <scstep>
   <time name="dav">   89.34   89.79</time>
   <time name="total">   96.12   96.59</time>
   <energy>
    <i name="e_fr_energy">   -196.13560150 </i>
    <i name="e_wo_entrp">   -196.13560150 </i>
    <i name="e_0_energy">   -196.13560150 </i>
   </energy>
  </scstep>
  <scstep>
   <time name="dav">   84.78   85.21</time>
   <time name="total">   91.52   91.97</time>
   <energy>
    <i name="e_fr_energy">   -196.08630552 </i>
    <i name="e_wo_entrp">   -196.08630552 </i>
    <i name="e_0_energy">   -196.08630552 </i>
   </energy>
  </scstep>
  <scstep>
   <time name="dav">   85.27   85.69</time>
   <time name="total">   92.01   92.46</time>
   <energy>
    <i name="e_fr_energy">   -196.06392044 </i>
    <i name="e_wo_entrp">   -196.06392044 </i>
    <i name="e_0_energy">   -196.06392044 </i>
   </energy>
  </scstep>
  <scstep>
   <time name="dav">   88.83   89.30</time>
   <time name="total">   95.61   96.11</time>
   <energy>
    <i name="e_fr_energy">   -196.05974241 </i>
    <i name="e_wo_entrp">   -196.05974241 </i>
    <i name="e_0_energy">   -196.05974241 </i>
   </energy>
  </scstep>
  <scstep>
   <time name="dav">   85.32   85.77</time>
   <time name="total">   92.05   92.52</time>
   <energy>
    <i name="e_fr_energy">   -196.05669281 </i>
    <i name="e_wo_entrp">   -196.05669281 </i>
    <i name="e_0_energy">   -196.05669281 </i>
   </energy>
  </scstep>
  <scstep>
   <time name="dav">   84.12   84.57</time>
   <time name="total">   90.84   91.31</time>
   <energy>
    <i name="e_fr_energy">   -196.05639415 </i>
    <i name="e_wo_entrp">   -196.05639415 </i>
    <i name="e_0_energy">   -196.05639415 </i>
   </energy>
  </scstep>
  <scstep>
   <time name="dav">   80.99   81.41</time>
   <time name="total">   87.72   88.16</time>
   <energy>
    <i name="e_fr_energy">   -196.05606194 </i>
    <i name="e_wo_entrp">   -196.05606194 </i>
    <i name="e_0_energy">   -196.05606194 </i>
   </energy>
  </scstep>
  <scstep>
   <time name="dav">   81.64   82.06</time>
   <time name="total">   88.40   88.85</time>
   <energy>
    <i name="e_fr_energy">   -196.05636709 </i>
    <i name="e_wo_entrp">   -196.05636709 </i>
    <i name="e_0_energy">   -196.05636709 </i>
   </energy>
  </scstep>
  <scstep>
   <time name="dav">   82.90   83.33</time>
   <time name="total">   89.62   90.08</time>
   <energy>
    <i name="e_fr_energy">   -196.05675434 </i>
    <i name="e_wo_entrp">   -196.05675434 </i>
    <i name="e_0_energy">   -196.05675434 </i>
   </energy>
  </scstep>
  <scstep>
   <time name="dav">   78.98   79.38</time>
   <time name="total">   85.72   86.14</time>
   <energy>
    <i name="e_fr_energy">   -196.05734364 </i>
    <i name="e_wo_entrp">   -196.05734364 </i>
    <i name="e_0_energy">   -196.05734364 </i>
   </energy>
  </scstep>
  <scstep>
   <time name="dav">   78.44   78.83</time>
   <time name="total">   85.14   85.56</time>
   <energy>
    <i name="e_fr_energy">   -196.05749014 </i>
    <i name="e_wo_entrp">   -196.05749014 </i>
    <i name="e_0_energy">   -196.05749014 </i>
   </energy>
  </scstep>
  <scstep>
   <time name="dav">   75.40   75.79</time>
   <time name="total">   82.11   82.52</time>
   <energy>
    <i name="e_fr_energy">   -196.05759574 </i>
    <i name="e_wo_entrp">   -196.05759574 </i>
    <i name="e_0_energy">   -196.05759574 </i>
   </energy>
  </scstep>
  <scstep>
   <time name="dav">   69.79   70.14</time>
   <time name="total">   76.51   76.90</time>
   <energy>
    <i name="e_fr_energy">   -196.05777561 </i>
    <i name="e_wo_entrp">   -196.05777561 </i>
    <i name="e_0_energy">   -196.05777561 </i>
   </energy>
  </scstep>
  <scstep>
   <time name="dav">   68.79   69.13</time>
   <time name="total">   75.48   75.84</time>
   <energy>
    <i name="e_fr_energy">   -196.05785151 </i>
    <i name="e_wo_entrp">   -196.05785151 </i>
    <i name="e_0_energy">   -196.05785151 </i>
   </energy>
  </scstep>
  <scstep>
   <time name="dav">   61.74   62.04</time>
   <time name="total">   68.42   68.74</time>
   <energy>
    <i name="e_fr_energy">   -196.05793625 </i>
    <i name="e_wo_entrp">   -196.05793625 </i>
    <i name="e_0_energy">   -196.05793625 </i>
   </energy>
  </scstep>
  <scstep>
   <time name="dav">   66.85   67.19</time>
   <time name="total">   73.54   73.90</time>
   <energy>
    <i name="e_fr_energy">   -196.05810973 </i>
    <i name="e_wo_entrp">   -196.05810973 </i>
    <i name="e_0_energy">   -196.05810973 </i>
   </energy>
  </scstep>
  <scstep>
   <time name="dav">   64.75   65.11</time>
   <time name="total">   71.42   71.81</time>
   <energy>
    <i name="e_fr_energy">   -196.05818562 </i>
    <i name="e_wo_entrp">   -196.05818562 </i>
    <i name="e_0_energy">   -196.05818562 </i>
   </energy>
  </scstep>
  <scstep>
   <time name="dav">   58.23   58.54</time>
   <time name="total">   64.95   65.29</time>
   <energy>
    <i name="e_fr_energy">   -196.05821807 </i>
    <i name="e_wo_entrp">   -196.05821807 </i>
    <i name="e_0_energy">   -196.05821807 </i>
   </energy>
  </scstep>
  <scstep>
   <time name="dav">   58.38   58.68</time>
   <time name="total">   65.15   65.48</time>
   <energy>
    <i name="e_fr_energy">   -196.05824049 </i>
    <i name="e_wo_entrp">   -196.05824049 </i>
    <i name="e_0_energy">   -196.05824049 </i>
   </energy>
  </scstep>
  <scstep>
   <time name="dav">   57.23   57.53</time>
   <time name="total">   63.98   64.31</time>
   <energy>
    <i name="e_fr_energy">   -196.05825441 </i>
    <i name="e_wo_entrp">   -196.05825441 </i>
    <i name="e_0_energy">   -196.05825441 </i>
   </energy>
  </scstep>
  <scstep>
   <time name="dav">   51.35   51.62</time>
   <time name="total">   58.09   58.39</time>
   <energy>
    <i name="e_fr_energy">   -196.05825758 </i>
    <i name="e_wo_entrp">   -196.05825758 </i>
    <i name="e_0_energy">   -196.05825758 </i>
   </energy>
  </scstep>
  <scstep>
   <time name="dav">   52.75   53.03</time>
   <time name="total">   59.50   59.80</time>
   <energy>
    <i name="e_fr_energy">   -196.05826005 </i>
    <i name="e_wo_entrp">   -196.05826005 </i>
    <i name="e_0_energy">   -196.05826005 </i>
   </energy>
  </scstep>
  <scstep>
   <time name="dav">   48.60   48.85</time>
   <time name="total">   49.12   49.38</time>
   <energy>
    <i name="alphaZ">    267.51052480 </i>
    <i name="ewald">  40385.57080757 </i>
    <i name="hartreedc"> -59421.13395302 </i>
    <i name="XCdc">    817.57356741 </i>
    <i name="pawpsdc">  26455.87147830 </i>
    <i name="pawaedc"> -26266.69234406 </i>
    <i name="eentropy">     -0.00000000 </i>
    <i name="bandstr">  -4178.09942196 </i>
    <i name="atom">  21743.34108040 </i>
    <i name="e_fr_energy">   -196.05826057 </i>
    <i name="e_wo_entrp">   -196.05826057 </i>
    <i name="e_0_energy">   -196.05826057 </i>
   </energy>
  </scstep>
  <structure>
   <crystal>
    <varray name="basis" >
     <v>       9.55219900       0.00000000       0.00000000 </v>
     <v>      -4.77610000       8.27244700       0.00000000 </v>
     <v>       0.00000000       0.00000000      18.12711300 </v>
    </varray>
    <i name="volume">   1432.40555618 </i>
    <varray name="rec_basis" >
     <v>       0.10468794       0.06044161      -0.00000000 </v>
     <v>       0.00000000       0.12088322       0.00000000 </v>
     <v>       0.00000000      -0.00000000       0.05516598 </v>
    </varray>
   </crystal>
   <varray name="positions" >
    <v>       0.00331683       0.99899865       0.50049155 </v>
    <v>       0.32818816       0.33071090       0.49987667 </v>
    <v>       0.65860704       0.99804878       0.50329149 </v>
    <v>       0.33457207       0.99962366       0.50069257 </v>
    <v>       0.33155602       0.66710110       0.49883928 </v>
    <v>       0.67247621       0.33670398       0.50530980 </v>
    <v>       0.99964673       0.33421168       0.49976273 </v>
    <v>       0.67033975       0.66958444       0.49690677 </v>
    <v>       0.99714262       0.66549266       0.49662556 </v>
    <v>       0.55695334       0.10735619       0.58714670 </v>
    <v>       0.22478564       0.10716819       0.58701742 </v>
    <v>       0.22189771       0.11414887       0.41352580 </v>
    <v>       0.22003468       0.44685904       0.58460524 </v>
    <v>       0.22340865       0.44534258       0.40966814 </v>
    <v>       0.21410650       0.77159079       0.58225432 </v>
    <v>       0.22047189       0.77424269       0.41115973 </v>
    <v>       0.56465322       0.11682737       0.41909010 </v>
    <v>       0.55919679       0.78133397       0.41113026 </v>
    <v>       0.55524440       0.45157644       0.58713199 </v>
    <v>       0.55058683       0.76894360       0.58615943 </v>
    <v>       0.55312410       0.43915561       0.41735758 </v>
    <v>       0.89588724       0.10869002       0.58730369 </v>
    <v>       0.87705567       0.10691505       0.41661037 </v>
    <v>       0.89998769       0.44955309       0.58719501 </v>
    <v>       0.89067738       0.44849743       0.41672230 </v>
    <v>       0.88954508       0.77685104       0.58146241 </v>
    <v>       0.89481345       0.78352433       0.40908474 </v>
   </varray>
  </structure>
  <varray name="forces" >
   <v>      -0.48762715       0.23783344      -0.84895103 </v>
   <v>       0.39878476       0.49116517       0.32235659 </v>
   <v>       2.10223798      -0.54410184      -0.25232217 </v>
   <v>      -0.21397878       0.06525769      -0.72765958 </v>
   <v>       0.54274610      -0.47848964      -0.78184019 </v>
   <v>      -0.51278140      -0.23056631      -0.51098184 </v>
   <v>       0.45450505      -0.11955415      -0.13926767 </v>
   <v>      -0.56505555      -0.15257354       0.20439632 </v>
   <v>       0.40057147       0.61588703       0.44051000 </v>
   <v>      -0.71235187       0.39327838       0.95736679 </v>
   <v>      -0.26373336       0.27434987       0.03358315 </v>
   <v>       0.38055019      -0.34844259       0.04255747 </v>
   <v>       0.21552504      -0.13692342       0.18010072 </v>
   <v>      -0.21201241      -0.17669777       0.77784051 </v>
   <v>       0.29604375       0.38145872       0.60287162 </v>
   <v>       0.02681753       0.53093991       0.20479272 </v>
   <v>      -0.74430180       0.03452961      -0.70461928 </v>
   <v>      -0.38776985      -0.05613285       0.55849018 </v>
   <v>       0.11361793      -0.26355896      -0.19874642 </v>
   <v>       0.00817274       0.33861131      -0.12723189 </v>
   <v>       0.28610682       0.10262910      -0.34652341 </v>
   <v>      -0.75812080       0.12765069      -0.13952905 </v>
   <v>       0.63461474       0.14408243      -0.01406181 </v>
   <v>      -0.45456704      -0.03396077       0.24032204 </v>
   <v>      -0.21228024      -0.92796474      -0.92380470 </v>
   <v>      -0.05204330      -0.10572497       0.80593232 </v>
   <v>      -0.28367055      -0.16298177       0.34441859 </v>
  </varray>
  <varray name="stress" >
   <v>       2.03193020      -0.76845641      -1.89177631 </v>
   <v>      -0.76845630       2.32200641       3.09234314 </v>
   <v>      -1.89177639       3.09234316       3.47503700 </v>
  </varray>
  <energy>
   <i name="e_fr_energy">   -196.05826057 </i>
   <i name="e_wo_entrp">   -196.05826057 </i>
   <i name="e_0_energy">     -0.00000000 </i>
  </energy>
  <time name="totalsc"> 2624.65 2638.06</time>
  <eigenvalues>
   <array>
    <dimension dim="1">band</dimension>
    <dimension dim="2">kpoint</dimension>
    <dimension dim="3">spin</dimension>
    <field>eigene</field>
    <field>occ</field>
    <set>
     <set comment="spin 1">
      <set comment="kpoint 1">
       <r>  -62.5031    1.0000 </r>
       <r>  -62.4844    1.0000 </r>
       <r>  -62.4828    1.0000 </r>
       <r>  -62.4751    1.0000 </r>
       <r>  -62.4692    1.0000 </r>
       <r>  -62.4640    1.0000 </r>
       <r>  -62.4585    1.0000 </r>
       <r>  -62.4541    1.0000 </r>
       <r>  -62.4400    1.0000 </r>
       <r>  -36.7520    1.0000 </r>
       <r>  -36.7432    1.0000 </r>
       <r>  -36.7354    1.0000 </r>
       <r>  -36.7238    1.0000 </r>
       <r>  -36.7163    1.0000 </r>
       <r>  -36.7110    1.0000 </r>
       <r>  -36.6952    1.0000 </r>
       <r>  -36.6865    1.0000 </r>
       <r>  -36.6788    1.0000 </r>
       <r>  -36.6660    1.0000 </r>
       <r>  -36.6421    1.0000 </r>
       <r>  -36.5972    1.0000 </r>
       <r>  -36.5945    1.0000 </r>
       <r>  -36.5920    1.0000 </r>
       <r>  -36.5898    1.0000 </r>
       <r>  -36.5776    1.0000 </r>
       <r>  -36.5719    1.0000 </r>
       <r>  -36.5536    1.0000 </r>
       <r>  -36.5458    1.0000 </r>
       <r>  -36.5183    1.0000 </r>
       <r>  -36.5119    1.0000 </r>
       <r>  -36.5051    1.0000 </r>
       <r>  -36.4952    1.0000 </r>
       <r>  -36.4902    1.0000 </r>
       <r>  -36.4817    1.0000 </r>
       <r>  -36.4379    1.0000 </r>
       <r>  -36.4310    1.0000 </r>
       <r>  -15.7370    1.0000 </r>
       <r>  -14.5663    1.0000 </r>
       <r>  -14.4945    1.0000 </r>
       <r>  -14.4338    1.0000 </r>
       <r>  -14.4245    1.0000 </r>
       <r>  -14.3728    1.0000 </r>
       <r>  -14.3629    1.0000 </r>
       <r>  -14.3474    1.0000 </r>
       <r>  -13.9694    1.0000 </r>
       <r>  -13.9393    1.0000 </r>
       <r>  -13.8943    1.0000 </r>
       <r>  -13.8671    1.0000 </r>
       <r>  -13.8158    1.0000 </r>
       <r>  -13.7748    1.0000 </r>
       <r>  -13.6164    1.0000 </r>
       <r>  -13.5679    1.0000 </r>
       <r>  -13.5213    1.0000 </r>
       <r>  -13.4444    1.0000 </r>
       <r>   -7.2707    1.0000 </r>
       <r>   -7.1236    1.0000 </r>
       <r>   -7.0496    1.0000 </r>
       <r>   -6.9247    1.0000 </r>
       <r>   -6.9141    1.0000 </r>
       <r>   -6.8844    1.0000 </r>
       <r>   -6.8459    1.0000 </r>
       <r>   -6.8375    1.0000 </r>
       <r>   -6.8140    1.0000 </r>
       <r>   -6.3126    1.0000 </r>
       <r>   -6.1969    1.0000 </r>
       <r>   -5.9116    1.0000 </r>
       <r>   -5.8813    1.0000 </r>
       <r>   -5.8359    1.0000 </r>
       <r>   -5.7952    1.0000 </r>
       <r>   -5.7938    1.0000 </r>
       <r>   -5.7658    1.0000 </r>
       <r>   -5.7227    1.0000 </r>
       <r>   -5.6081    1.0000 </r>
       <r>   -5.5982    1.0000 </r>
       <r>   -5.5647    1.0000 </r>
       <r>   -5.5318    1.0000 </r>
       <r>   -5.5041    1.0000 </r>
       <r>   -5.4811    1.0000 </r>
       <r>   -5.4515    1.0000 </r>
       <r>   -5.1998    1.0000 </r>
       <r>   -5.1800    1.0000 </r>
       <r>   -4.6513    1.0000 </r>
       <r>   -4.5782    1.0000 </r>
       <r>   -4.5402    1.0000 </r>
       <r>   -4.4988    1.0000 </r>
       <r>   -4.4674    1.0000 </r>
       <r>   -4.4509    1.0000 </r>
       <r>   -4.3898    1.0000 </r>
       <r>   -4.3607    1.0000 </r>
       <r>   -4.2651    1.0000 </r>
       <r>   -4.2390    1.0000 </r>
       <r>   -3.8603    1.0000 </r>
       <r>   -3.7165    1.0000 </r>
       <r>   -3.4047    1.0000 </r>
       <r>   -3.3348    1.0000 </r>
       <r>   -3.3246    1.0000 </r>
       <r>   -3.2883    1.0000 </r>
       <r>   -3.2675    1.0000 </r>
       <r>   -3.1984    1.0000 </r>
       <r>   -3.1935    1.0000 </r>
       <r>   -3.1436    1.0000 </r>
       <r>   -3.1253    1.0000 </r>
       <r>   -3.1035    1.0000 </r>
       <r>   -3.0288    1.0000 </r>
       <r>   -3.0192    1.0000 </r>
       <r>   -2.9850    1.0000 </r>
       <r>   -2.9543    1.0000 </r>
       <r>   -2.8897    1.0000 </r>
       <r>   -2.6516    1.0000 </r>
       <r>   -2.6127    1.0000 </r>
       <r>   -2.5681    1.0000 </r>
       <r>   -2.5490    1.0000 </r>
       <r>   -2.5461    1.0000 </r>
       <r>   -2.5127    1.0000 </r>
       <r>   -1.7222    1.0000 </r>
       <r>   -1.6116    1.0000 </r>
       <r>   -1.5687    1.0000 </r>
       <r>   -0.0137    0.0000 </r>
       <r>    0.0061    0.0000 </r>
       <r>    0.4548    0.0000 </r>
       <r>    0.4889    0.0000 </r>
       <r>    0.5325    0.0000 </r>
       <r>    0.5515    0.0000 </r>
       <r>    0.5879    0.0000 </r>
       <r>    0.6210    0.0000 </r>
       <r>    0.6650    0.0000 </r>
       <r>    0.6871    0.0000 </r>
       <r>    0.7123    0.0000 </r>
       <r>    0.7295    0.0000 </r>
       <r>    0.8209    0.0000 </r>
       <r>    0.8646    0.0000 </r>
       <r>    1.0692    0.0000 </r>
       <r>    1.1447    0.0000 </r>
       <r>    1.2989    0.0000 </r>
       <r>    1.3460    0.0000 </r>
       <r>    1.4348    0.0000 </r>
       <r>    1.5233    0.0000 </r>
       <r>    1.6394    0.0000 </r>
       <r>    1.6749    0.0000 </r>
       <r>    1.7501    0.0000 </r>
      </set>
      <set comment="kpoint 2">
       <r>  -62.5022    1.0000 </r>
       <r>  -62.4856    1.0000 </r>
       <r>  -62.4831    1.0000 </r>
       <r>  -62.4757    1.0000 </r>
       <r>  -62.4689    1.0000 </r>
       <r>  -62.4632    1.0000 </r>
       <r>  -62.4586    1.0000 </r>
       <r>  -62.4541    1.0000 </r>
       <r>  -62.4401    1.0000 </r>
       <r>  -36.7740    1.0000 </r>
       <r>  -36.7619    1.0000 </r>
       <r>  -36.7490    1.0000 </r>
       <r>  -36.7362    1.0000 </r>
       <r>  -36.7231    1.0000 </r>
       <r>  -36.6991    1.0000 </r>
       <r>  -36.6813    1.0000 </r>
       <r>  -36.6605    1.0000 </r>
       <r>  -36.6495    1.0000 </r>
       <r>  -36.6450    1.0000 </r>
       <r>  -36.6377    1.0000 </r>
       <r>  -36.6041    1.0000 </r>
       <r>  -36.5960    1.0000 </r>
       <r>  -36.5920    1.0000 </r>
       <r>  -36.5848    1.0000 </r>
       <r>  -36.5771    1.0000 </r>
       <r>  -36.5698    1.0000 </r>
       <r>  -36.5539    1.0000 </r>
       <r>  -36.5462    1.0000 </r>
       <r>  -36.5264    1.0000 </r>
       <r>  -36.5184    1.0000 </r>
       <r>  -36.5045    1.0000 </r>
       <r>  -36.4991    1.0000 </r>
       <r>  -36.4927    1.0000 </r>
       <r>  -36.4794    1.0000 </r>
       <r>  -36.4420    1.0000 </r>
       <r>  -36.4402    1.0000 </r>
       <r>  -15.6917    1.0000 </r>
       <r>  -14.7748    1.0000 </r>
       <r>  -14.5862    1.0000 </r>
       <r>  -14.5535    1.0000 </r>
       <r>  -14.3961    1.0000 </r>
       <r>  -14.2657    1.0000 </r>
       <r>  -14.2454    1.0000 </r>
       <r>  -14.1353    1.0000 </r>
       <r>  -14.0246    1.0000 </r>
       <r>  -13.9755    1.0000 </r>
       <r>  -13.9030    1.0000 </r>
       <r>  -13.8348    1.0000 </r>
       <r>  -13.7850    1.0000 </r>
       <r>  -13.7260    1.0000 </r>
       <r>  -13.6429    1.0000 </r>
       <r>  -13.5975    1.0000 </r>
       <r>  -13.5408    1.0000 </r>
       <r>  -13.4615    1.0000 </r>
       <r>   -7.2261    1.0000 </r>
       <r>   -7.1585    1.0000 </r>
       <r>   -7.0678    1.0000 </r>
       <r>   -7.0010    1.0000 </r>
       <r>   -6.9513    1.0000 </r>
       <r>   -6.9177    1.0000 </r>
       <r>   -6.7651    1.0000 </r>
       <r>   -6.7305    1.0000 </r>
       <r>   -6.6532    1.0000 </r>
       <r>   -6.4940    1.0000 </r>
       <r>   -6.4570    1.0000 </r>
       <r>   -6.1419    1.0000 </r>
       <r>   -6.0115    1.0000 </r>
       <r>   -5.9971    1.0000 </r>
       <r>   -5.6871    1.0000 </r>
       <r>   -5.6674    1.0000 </r>
       <r>   -5.6083    1.0000 </r>
       <r>   -5.5668    1.0000 </r>
       <r>   -5.5421    1.0000 </r>
       <r>   -5.5189    1.0000 </r>
       <r>   -5.5097    1.0000 </r>
       <r>   -5.4834    1.0000 </r>
       <r>   -5.4697    1.0000 </r>
       <r>   -5.4400    1.0000 </r>
       <r>   -5.3606    1.0000 </r>
       <r>   -5.0924    1.0000 </r>
       <r>   -5.0331    1.0000 </r>
       <r>   -4.7476    1.0000 </r>
       <r>   -4.6753    1.0000 </r>
       <r>   -4.6346    1.0000 </r>
       <r>   -4.5930    1.0000 </r>
       <r>   -4.5394    1.0000 </r>
       <r>   -4.4978    1.0000 </r>
       <r>   -4.4551    1.0000 </r>
       <r>   -4.3661    1.0000 </r>
       <r>   -4.2581    1.0000 </r>
       <r>   -4.1959    1.0000 </r>
       <r>   -3.7556    1.0000 </r>
       <r>   -3.6924    1.0000 </r>
       <r>   -3.6039    1.0000 </r>
       <r>   -3.4010    1.0000 </r>
       <r>   -3.3641    1.0000 </r>
       <r>   -3.3300    1.0000 </r>
       <r>   -3.2778    1.0000 </r>
       <r>   -3.2660    1.0000 </r>
       <r>   -3.2383    1.0000 </r>
       <r>   -3.2039    1.0000 </r>
       <r>   -3.1749    1.0000 </r>
       <r>   -3.0936    1.0000 </r>
       <r>   -3.0346    1.0000 </r>
       <r>   -3.0038    1.0000 </r>
       <r>   -2.9726    1.0000 </r>
       <r>   -2.8766    1.0000 </r>
       <r>   -2.8068    1.0000 </r>
       <r>   -2.6149    1.0000 </r>
       <r>   -2.5020    1.0000 </r>
       <r>   -2.4620    1.0000 </r>
       <r>   -2.4546    1.0000 </r>
       <r>   -2.4317    1.0000 </r>
       <r>   -2.4005    1.0000 </r>
       <r>   -1.8021    1.0000 </r>
       <r>   -1.7041    1.0000 </r>
       <r>   -1.6096    1.0000 </r>
       <r>    0.1108    0.0000 </r>
       <r>    0.1211    0.0000 </r>
       <r>    0.3889    0.0000 </r>
       <r>    0.4622    0.0000 </r>
       <r>    0.4806    0.0000 </r>
       <r>    0.5422    0.0000 </r>
       <r>    0.5635    0.0000 </r>
       <r>    0.6224    0.0000 </r>
       <r>    0.6593    0.0000 </r>
       <r>    0.7338    0.0000 </r>
       <r>    0.7599    0.0000 </r>
       <r>    0.8282    0.0000 </r>
       <r>    0.8983    0.0000 </r>
       <r>    0.9241    0.0000 </r>
       <r>    1.0142    0.0000 </r>
       <r>    1.1805    0.0000 </r>
       <r>    1.2537    0.0000 </r>
       <r>    1.2736    0.0000 </r>
       <r>    1.4014    0.0000 </r>
       <r>    1.4525    0.0000 </r>
       <r>    1.4848    0.0000 </r>
       <r>    1.5610    0.0000 </r>
       <r>    1.6143    0.0000 </r>
      </set>
      <set comment="kpoint 3">
       <r>  -62.5001    1.0000 </r>
       <r>  -62.4885    1.0000 </r>
       <r>  -62.4834    1.0000 </r>
       <r>  -62.4769    1.0000 </r>
       <r>  -62.4676    1.0000 </r>
       <r>  -62.4620    1.0000 </r>
       <r>  -62.4589    1.0000 </r>
       <r>  -62.4539    1.0000 </r>
       <r>  -62.4401    1.0000 </r>
       <r>  -36.8018    1.0000 </r>
       <r>  -36.7781    1.0000 </r>
       <r>  -36.7628    1.0000 </r>
       <r>  -36.7517    1.0000 </r>
       <r>  -36.7428    1.0000 </r>
       <r>  -36.6773    1.0000 </r>
       <r>  -36.6583    1.0000 </r>
       <r>  -36.6358    1.0000 </r>
       <r>  -36.6187    1.0000 </r>
       <r>  -36.6165    1.0000 </r>
       <r>  -36.6082    1.0000 </r>
       <r>  -36.6010    1.0000 </r>
       <r>  -36.5950    1.0000 </r>
       <r>  -36.5886    1.0000 </r>
       <r>  -36.5791    1.0000 </r>
       <r>  -36.5739    1.0000 </r>
       <r>  -36.5682    1.0000 </r>
       <r>  -36.5546    1.0000 </r>
       <r>  -36.5477    1.0000 </r>
       <r>  -36.5441    1.0000 </r>
       <r>  -36.5321    1.0000 </r>
       <r>  -36.5180    1.0000 </r>
       <r>  -36.5041    1.0000 </r>
       <r>  -36.4965    1.0000 </r>
       <r>  -36.4728    1.0000 </r>
       <r>  -36.4691    1.0000 </r>
       <r>  -36.4474    1.0000 </r>
       <r>  -15.5595    1.0000 </r>
       <r>  -15.0743    1.0000 </r>
       <r>  -14.6693    1.0000 </r>
       <r>  -14.6385    1.0000 </r>
       <r>  -14.3404    1.0000 </r>
       <r>  -14.1527    1.0000 </r>
       <r>  -14.0848    1.0000 </r>
       <r>  -14.0709    1.0000 </r>
       <r>  -14.0053    1.0000 </r>
       <r>  -13.9557    1.0000 </r>
       <r>  -13.9080    1.0000 </r>
       <r>  -13.7737    1.0000 </r>
       <r>  -13.7644    1.0000 </r>
       <r>  -13.7134    1.0000 </r>
       <r>  -13.6826    1.0000 </r>
       <r>  -13.6349    1.0000 </r>
       <r>  -13.5862    1.0000 </r>
       <r>  -13.5066    1.0000 </r>
       <r>   -7.3375    1.0000 </r>
       <r>   -7.0867    1.0000 </r>
       <r>   -7.0542    1.0000 </r>
       <r>   -7.0050    1.0000 </r>
       <r>   -6.8207    1.0000 </r>
       <r>   -6.7950    1.0000 </r>
       <r>   -6.7798    1.0000 </r>
       <r>   -6.7340    1.0000 </r>
       <r>   -6.6882    1.0000 </r>
       <r>   -6.6094    1.0000 </r>
       <r>   -6.5829    1.0000 </r>
       <r>   -6.3480    1.0000 </r>
       <r>   -6.2404    1.0000 </r>
       <r>   -6.2230    1.0000 </r>
       <r>   -5.7181    1.0000 </r>
       <r>   -5.5432    1.0000 </r>
       <r>   -5.5241    1.0000 </r>
       <r>   -5.5024    1.0000 </r>
       <r>   -5.4767    1.0000 </r>
       <r>   -5.4401    1.0000 </r>
       <r>   -5.4301    1.0000 </r>
       <r>   -5.4095    1.0000 </r>
       <r>   -5.3710    1.0000 </r>
       <r>   -5.3374    1.0000 </r>
       <r>   -5.0260    1.0000 </r>
       <r>   -4.8759    1.0000 </r>
       <r>   -4.8266    1.0000 </r>
       <r>   -4.7831    1.0000 </r>
       <r>   -4.7463    1.0000 </r>
       <r>   -4.7075    1.0000 </r>
       <r>   -4.6775    1.0000 </r>
       <r>   -4.6420    1.0000 </r>
       <r>   -4.6290    1.0000 </r>
       <r>   -4.5706    1.0000 </r>
       <r>   -4.5029    1.0000 </r>
       <r>   -4.1060    1.0000 </r>
       <r>   -4.0427    1.0000 </r>
       <r>   -4.0007    1.0000 </r>
       <r>   -3.6510    1.0000 </r>
       <r>   -3.5833    1.0000 </r>
       <r>   -3.5484    1.0000 </r>
       <r>   -3.5211    1.0000 </r>
       <r>   -3.4899    1.0000 </r>
       <r>   -3.4625    1.0000 </r>
       <r>   -3.4191    1.0000 </r>
       <r>   -3.4053    1.0000 </r>
       <r>   -3.3922    1.0000 </r>
       <r>   -3.3098    1.0000 </r>
       <r>   -3.2028    1.0000 </r>
       <r>   -2.8478    1.0000 </r>
       <r>   -2.8127    1.0000 </r>
       <r>   -2.7603    1.0000 </r>
       <r>   -2.6938    1.0000 </r>
       <r>   -2.6804    1.0000 </r>
       <r>   -2.5497    1.0000 </r>
       <r>   -2.3513    1.0000 </r>
       <r>   -2.3152    1.0000 </r>
       <r>   -2.2902    1.0000 </r>
       <r>   -2.2683    1.0000 </r>
       <r>   -2.1584    1.0000 </r>
       <r>   -1.9705    1.0000 </r>
       <r>   -1.9072    1.0000 </r>
       <r>   -1.6966    1.0000 </r>
       <r>    0.2580    0.0000 </r>
       <r>    0.3455    0.0000 </r>
       <r>    0.3643    0.0000 </r>
       <r>    0.4284    0.0000 </r>
       <r>    0.4926    0.0000 </r>
       <r>    0.5344    0.0000 </r>
       <r>    0.5922    0.0000 </r>
       <r>    0.6526    0.0000 </r>
       <r>    0.7603    0.0000 </r>
       <r>    0.7979    0.0000 </r>
       <r>    0.8267    0.0000 </r>
       <r>    0.8754    0.0000 </r>
       <r>    0.9421    0.0000 </r>
       <r>    0.9765    0.0000 </r>
       <r>    0.9989    0.0000 </r>
       <r>    1.0513    0.0000 </r>
       <r>    1.0910    0.0000 </r>
       <r>    1.1582    0.0000 </r>
       <r>    1.2040    0.0000 </r>
       <r>    1.2385    0.0000 </r>
       <r>    1.4224    0.0000 </r>
       <r>    1.4694    0.0000 </r>
       <r>    1.6169    0.0000 </r>
      </set>
      <set comment="kpoint 4">
       <r>  -62.4985    1.0000 </r>
       <r>  -62.4904    1.0000 </r>
       <r>  -62.4835    1.0000 </r>
       <r>  -62.4774    1.0000 </r>
       <r>  -62.4668    1.0000 </r>
       <r>  -62.4616    1.0000 </r>
       <r>  -62.4591    1.0000 </r>
       <r>  -62.4538    1.0000 </r>
       <r>  -62.4402    1.0000 </r>
       <r>  -36.8119    1.0000 </r>
       <r>  -36.7839    1.0000 </r>
       <r>  -36.7682    1.0000 </r>
       <r>  -36.7567    1.0000 </r>
       <r>  -36.7505    1.0000 </r>
       <r>  -36.6677    1.0000 </r>
       <r>  -36.6485    1.0000 </r>
       <r>  -36.6284    1.0000 </r>
       <r>  -36.6247    1.0000 </r>
       <r>  -36.6006    1.0000 </r>
       <r>  -36.5951    1.0000 </r>
       <r>  -36.5892    1.0000 </r>
       <r>  -36.5806    1.0000 </r>
       <r>  -36.5778    1.0000 </r>
       <r>  -36.5750    1.0000 </r>
       <r>  -36.5706    1.0000 </r>
       <r>  -36.5674    1.0000 </r>
       <r>  -36.5616    1.0000 </r>
       <r>  -36.5540    1.0000 </r>
       <r>  -36.5470    1.0000 </r>
       <r>  -36.5324    1.0000 </r>
       <r>  -36.5226    1.0000 </r>
       <r>  -36.5176    1.0000 </r>
       <r>  -36.5028    1.0000 </r>
       <r>  -36.4934    1.0000 </r>
       <r>  -36.4594    1.0000 </r>
       <r>  -36.4569    1.0000 </r>
       <r>  -15.3766    1.0000 </r>
       <r>  -15.3172    1.0000 </r>
       <r>  -14.6982    1.0000 </r>
       <r>  -14.6675    1.0000 </r>
       <r>  -14.2794    1.0000 </r>
       <r>  -14.2246    1.0000 </r>
       <r>  -14.0312    1.0000 </r>
       <r>  -13.9888    1.0000 </r>
       <r>  -13.9404    1.0000 </r>
       <r>  -13.8992    1.0000 </r>
       <r>  -13.8842    1.0000 </r>
       <r>  -13.8466    1.0000 </r>
       <r>  -13.7976    1.0000 </r>
       <r>  -13.7175    1.0000 </r>
       <r>  -13.6614    1.0000 </r>
       <r>  -13.6400    1.0000 </r>
       <r>  -13.5942    1.0000 </r>
       <r>  -13.5468    1.0000 </r>
       <r>   -7.4043    1.0000 </r>
       <r>   -7.0176    1.0000 </r>
       <r>   -6.9855    1.0000 </r>
       <r>   -6.9523    1.0000 </r>
       <r>   -6.9179    1.0000 </r>
       <r>   -6.8573    1.0000 </r>
       <r>   -6.8348    1.0000 </r>
       <r>   -6.6011    1.0000 </r>
       <r>   -6.5890    1.0000 </r>
       <r>   -6.5426    1.0000 </r>
       <r>   -6.5395    1.0000 </r>
       <r>   -6.4940    1.0000 </r>
       <r>   -6.4555    1.0000 </r>
       <r>   -6.3910    1.0000 </r>
       <r>   -5.7481    1.0000 </r>
       <r>   -5.5090    1.0000 </r>
       <r>   -5.5040    1.0000 </r>
       <r>   -5.4767    1.0000 </r>
       <r>   -5.4565    1.0000 </r>
       <r>   -5.4400    1.0000 </r>
       <r>   -5.4196    1.0000 </r>
       <r>   -5.3353    1.0000 </r>
       <r>   -5.2485    1.0000 </r>
       <r>   -5.0863    1.0000 </r>
       <r>   -5.0041    1.0000 </r>
       <r>   -4.9387    1.0000 </r>
       <r>   -4.8932    1.0000 </r>
       <r>   -4.8416    1.0000 </r>
       <r>   -4.8187    1.0000 </r>
       <r>   -4.7733    1.0000 </r>
       <r>   -4.7632    1.0000 </r>
       <r>   -4.7451    1.0000 </r>
       <r>   -4.5055    1.0000 </r>
       <r>   -4.4615    1.0000 </r>
       <r>   -4.0883    1.0000 </r>
       <r>   -4.0534    1.0000 </r>
       <r>   -3.9755    1.0000 </r>
       <r>   -3.9526    1.0000 </r>
       <r>   -3.8456    1.0000 </r>
       <r>   -3.8200    1.0000 </r>
       <r>   -3.7380    1.0000 </r>
       <r>   -3.6869    1.0000 </r>
       <r>   -3.6177    1.0000 </r>
       <r>   -3.5845    1.0000 </r>
       <r>   -3.4744    1.0000 </r>
       <r>   -3.3991    1.0000 </r>
       <r>   -3.3692    1.0000 </r>
       <r>   -3.3023    1.0000 </r>
       <r>   -3.2570    1.0000 </r>
       <r>   -2.7287    1.0000 </r>
       <r>   -2.7243    1.0000 </r>
       <r>   -2.6507    1.0000 </r>
       <r>   -2.6410    1.0000 </r>
       <r>   -2.6241    1.0000 </r>
       <r>   -2.5233    1.0000 </r>
       <r>   -2.3055    1.0000 </r>
       <r>   -2.2279    1.0000 </r>
       <r>   -2.1904    1.0000 </r>
       <r>   -2.1626    1.0000 </r>
       <r>   -2.1054    1.0000 </r>
       <r>   -2.0548    1.0000 </r>
       <r>   -1.9021    1.0000 </r>
       <r>   -1.8488    1.0000 </r>
       <r>    0.2127    0.0000 </r>
       <r>    0.3958    0.0000 </r>
       <r>    0.4624    0.0000 </r>
       <r>    0.5036    0.0000 </r>
       <r>    0.5520    0.0000 </r>
       <r>    0.5702    0.0000 </r>
       <r>    0.6133    0.0000 </r>
       <r>    0.6978    0.0000 </r>
       <r>    0.7314    0.0000 </r>
       <r>    0.8123    0.0000 </r>
       <r>    0.8441    0.0000 </r>
       <r>    0.8558    0.0000 </r>
       <r>    0.9302    0.0000 </r>
       <r>    0.9576    0.0000 </r>
       <r>    1.0084    0.0000 </r>
       <r>    1.0539    0.0000 </r>
       <r>    1.0697    0.0000 </r>
       <r>    1.1197    0.0000 </r>
       <r>    1.1371    0.0000 </r>
       <r>    1.1676    0.0000 </r>
       <r>    1.2002    0.0000 </r>
       <r>    1.2476    0.0000 </r>
       <r>    1.6563    0.0000 </r>
      </set>
      <set comment="kpoint 5">
       <r>  -62.5022    1.0000 </r>
       <r>  -62.4850    1.0000 </r>
       <r>  -62.4840    1.0000 </r>
       <r>  -62.4753    1.0000 </r>
       <r>  -62.4686    1.0000 </r>
       <r>  -62.4639    1.0000 </r>
       <r>  -62.4580    1.0000 </r>
       <r>  -62.4544    1.0000 </r>
       <r>  -62.4400    1.0000 </r>
       <r>  -36.7766    1.0000 </r>
       <r>  -36.7616    1.0000 </r>
       <r>  -36.7496    1.0000 </r>
       <r>  -36.7348    1.0000 </r>
       <r>  -36.7199    1.0000 </r>
       <r>  -36.7004    1.0000 </r>
       <r>  -36.6763    1.0000 </r>
       <r>  -36.6654    1.0000 </r>
       <r>  -36.6549    1.0000 </r>
       <r>  -36.6411    1.0000 </r>
       <r>  -36.6361    1.0000 </r>
       <r>  -36.6027    1.0000 </r>
       <r>  -36.5970    1.0000 </r>
       <r>  -36.5929    1.0000 </r>
       <r>  -36.5859    1.0000 </r>
       <r>  -36.5744    1.0000 </r>
       <r>  -36.5709    1.0000 </r>
       <r>  -36.5542    1.0000 </r>
       <r>  -36.5462    1.0000 </r>
       <r>  -36.5264    1.0000 </r>
       <r>  -36.5169    1.0000 </r>
       <r>  -36.5074    1.0000 </r>
       <r>  -36.5021    1.0000 </r>
       <r>  -36.4912    1.0000 </r>
       <r>  -36.4766    1.0000 </r>
       <r>  -36.4481    1.0000 </r>
       <r>  -36.4345    1.0000 </r>
       <r>  -15.6915    1.0000 </r>
       <r>  -14.7754    1.0000 </r>
       <r>  -14.5859    1.0000 </r>
       <r>  -14.5506    1.0000 </r>
       <r>  -14.3972    1.0000 </r>
       <r>  -14.2766    1.0000 </r>
       <r>  -14.2409    1.0000 </r>
       <r>  -14.1360    1.0000 </r>
       <r>  -14.0297    1.0000 </r>
       <r>  -13.9433    1.0000 </r>
       <r>  -13.9268    1.0000 </r>
       <r>  -13.8358    1.0000 </r>
       <r>  -13.7769    1.0000 </r>
       <r>  -13.7274    1.0000 </r>
       <r>  -13.6431    1.0000 </r>
       <r>  -13.5998    1.0000 </r>
       <r>  -13.5407    1.0000 </r>
       <r>  -13.4626    1.0000 </r>
       <r>   -7.2240    1.0000 </r>
       <r>   -7.1657    1.0000 </r>
       <r>   -7.0679    1.0000 </r>
       <r>   -6.9850    1.0000 </r>
       <r>   -6.9573    1.0000 </r>
       <r>   -6.9279    1.0000 </r>
       <r>   -6.7720    1.0000 </r>
       <r>   -6.7186    1.0000 </r>
       <r>   -6.6506    1.0000 </r>
       <r>   -6.5204    1.0000 </r>
       <r>   -6.4223    1.0000 </r>
       <r>   -6.1427    1.0000 </r>
       <r>   -6.0122    1.0000 </r>
       <r>   -5.9867    1.0000 </r>
       <r>   -5.6786    1.0000 </r>
       <r>   -5.6473    1.0000 </r>
       <r>   -5.6394    1.0000 </r>
       <r>   -5.5728    1.0000 </r>
       <r>   -5.5523    1.0000 </r>
       <r>   -5.5259    1.0000 </r>
       <r>   -5.5192    1.0000 </r>
       <r>   -5.4792    1.0000 </r>
       <r>   -5.4679    1.0000 </r>
       <r>   -5.4373    1.0000 </r>
       <r>   -5.3649    1.0000 </r>
       <r>   -5.0826    1.0000 </r>
       <r>   -5.0326    1.0000 </r>
       <r>   -4.7566    1.0000 </r>
       <r>   -4.6868    1.0000 </r>
       <r>   -4.6420    1.0000 </r>
       <r>   -4.5970    1.0000 </r>
       <r>   -4.5360    1.0000 </r>
       <r>   -4.5063    1.0000 </r>
       <r>   -4.4366    1.0000 </r>
       <r>   -4.3643    1.0000 </r>
       <r>   -4.2518    1.0000 </r>
       <r>   -4.1871    1.0000 </r>
       <r>   -3.7728    1.0000 </r>
       <r>   -3.7104    1.0000 </r>
       <r>   -3.5870    1.0000 </r>
       <r>   -3.4084    1.0000 </r>
       <r>   -3.3531    1.0000 </r>
       <r>   -3.3141    1.0000 </r>
       <r>   -3.2902    1.0000 </r>
       <r>   -3.2531    1.0000 </r>
       <r>   -3.2156    1.0000 </r>
       <r>   -3.1981    1.0000 </r>
       <r>   -3.1398    1.0000 </r>
       <r>   -3.1001    1.0000 </r>
       <r>   -3.0548    1.0000 </r>
       <r>   -3.0224    1.0000 </r>
       <r>   -2.9789    1.0000 </r>
       <r>   -2.8937    1.0000 </r>
       <r>   -2.7940    1.0000 </r>
       <r>   -2.5648    1.0000 </r>
       <r>   -2.5191    1.0000 </r>
       <r>   -2.4959    1.0000 </r>
       <r>   -2.4720    1.0000 </r>
       <r>   -2.4315    1.0000 </r>
       <r>   -2.3842    1.0000 </r>
       <r>   -1.8065    1.0000 </r>
       <r>   -1.6989    1.0000 </r>
       <r>   -1.6100    1.0000 </r>
       <r>    0.1049    0.0000 </r>
       <r>    0.1250    0.0000 </r>
       <r>    0.4021    0.0000 </r>
       <r>    0.4431    0.0000 </r>
       <r>    0.4920    0.0000 </r>
       <r>    0.5373    0.0000 </r>
       <r>    0.5735    0.0000 </r>
       <r>    0.6175    0.0000 </r>
       <r>    0.6349    0.0000 </r>
       <r>    0.6926    0.0000 </r>
       <r>    0.7984    0.0000 </r>
       <r>    0.8440    0.0000 </r>
       <r>    0.8917    0.0000 </r>
       <r>    0.9372    0.0000 </r>
       <r>    1.0258    0.0000 </r>
       <r>    1.1622    0.0000 </r>
       <r>    1.2151    0.0000 </r>
       <r>    1.3047    0.0000 </r>
       <r>    1.4250    0.0000 </r>
       <r>    1.4478    0.0000 </r>
       <r>    1.4919    0.0000 </r>
       <r>    1.5559    0.0000 </r>
       <r>    1.5802    0.0000 </r>
      </set>
      <set comment="kpoint 6">
       <r>  -62.5007    1.0000 </r>
       <r>  -62.4871    1.0000 </r>
       <r>  -62.4844    1.0000 </r>
       <r>  -62.4760    1.0000 </r>
       <r>  -62.4679    1.0000 </r>
       <r>  -62.4625    1.0000 </r>
       <r>  -62.4584    1.0000 </r>
       <r>  -62.4542    1.0000 </r>
       <r>  -62.4401    1.0000 </r>
       <r>  -36.7942    1.0000 </r>
       <r>  -36.7817    1.0000 </r>
       <r>  -36.7644    1.0000 </r>
       <r>  -36.7335    1.0000 </r>
       <r>  -36.7314    1.0000 </r>
       <r>  -36.7074    1.0000 </r>
       <r>  -36.6427    1.0000 </r>
       <r>  -36.6387    1.0000 </r>
       <r>  -36.6311    1.0000 </r>
       <r>  -36.6199    1.0000 </r>
       <r>  -36.6130    1.0000 </r>
       <r>  -36.6084    1.0000 </r>
       <r>  -36.6017    1.0000 </r>
       <r>  -36.5903    1.0000 </r>
       <r>  -36.5809    1.0000 </r>
       <r>  -36.5729    1.0000 </r>
       <r>  -36.5695    1.0000 </r>
       <r>  -36.5548    1.0000 </r>
       <r>  -36.5468    1.0000 </r>
       <r>  -36.5378    1.0000 </r>
       <r>  -36.5270    1.0000 </r>
       <r>  -36.5181    1.0000 </r>
       <r>  -36.5075    1.0000 </r>
       <r>  -36.4903    1.0000 </r>
       <r>  -36.4720    1.0000 </r>
       <r>  -36.4651    1.0000 </r>
       <r>  -36.4431    1.0000 </r>
       <r>  -15.6026    1.0000 </r>
       <r>  -14.9367    1.0000 </r>
       <r>  -14.8420    1.0000 </r>
       <r>  -14.4003    1.0000 </r>
       <r>  -14.3559    1.0000 </r>
       <r>  -14.2990    1.0000 </r>
       <r>  -14.0968    1.0000 </r>
       <r>  -14.0542    1.0000 </r>
       <r>  -14.0345    1.0000 </r>
       <r>  -13.9853    1.0000 </r>
       <r>  -13.8794    1.0000 </r>
       <r>  -13.7995    1.0000 </r>
       <r>  -13.7532    1.0000 </r>
       <r>  -13.7081    1.0000 </r>
       <r>  -13.6830    1.0000 </r>
       <r>  -13.6313    1.0000 </r>
       <r>  -13.5692    1.0000 </r>
       <r>  -13.4948    1.0000 </r>
       <r>   -7.2579    1.0000 </r>
       <r>   -7.1837    1.0000 </r>
       <r>   -7.1148    1.0000 </r>
       <r>   -6.9363    1.0000 </r>
       <r>   -6.8423    1.0000 </r>
       <r>   -6.8003    1.0000 </r>
       <r>   -6.7699    1.0000 </r>
       <r>   -6.7465    1.0000 </r>
       <r>   -6.6791    1.0000 </r>
       <r>   -6.6159    1.0000 </r>
       <r>   -6.5665    1.0000 </r>
       <r>   -6.3213    1.0000 </r>
       <r>   -6.2471    1.0000 </r>
       <r>   -5.9069    1.0000 </r>
       <r>   -5.8401    1.0000 </r>
       <r>   -5.6801    1.0000 </r>
       <r>   -5.5934    1.0000 </r>
       <r>   -5.5273    1.0000 </r>
       <r>   -5.4969    1.0000 </r>
       <r>   -5.4707    1.0000 </r>
       <r>   -5.4432    1.0000 </r>
       <r>   -5.4109    1.0000 </r>
       <r>   -5.2925    1.0000 </r>
       <r>   -5.2451    1.0000 </r>
       <r>   -5.1489    1.0000 </r>
       <r>   -4.9558    1.0000 </r>
       <r>   -4.8498    1.0000 </r>
       <r>   -4.7971    1.0000 </r>
       <r>   -4.7622    1.0000 </r>
       <r>   -4.7225    1.0000 </r>
       <r>   -4.6987    1.0000 </r>
       <r>   -4.6257    1.0000 </r>
       <r>   -4.5879    1.0000 </r>
       <r>   -4.5100    1.0000 </r>
       <r>   -4.3576    1.0000 </r>
       <r>   -4.2229    1.0000 </r>
       <r>   -4.1056    1.0000 </r>
       <r>   -3.9583    1.0000 </r>
       <r>   -3.6415    1.0000 </r>
       <r>   -3.6056    1.0000 </r>
       <r>   -3.4958    1.0000 </r>
       <r>   -3.4873    1.0000 </r>
       <r>   -3.4645    1.0000 </r>
       <r>   -3.4296    1.0000 </r>
       <r>   -3.4064    1.0000 </r>
       <r>   -3.3873    1.0000 </r>
       <r>   -3.3570    1.0000 </r>
       <r>   -3.0806    1.0000 </r>
       <r>   -3.0290    1.0000 </r>
       <r>   -2.9742    1.0000 </r>
       <r>   -2.9468    1.0000 </r>
       <r>   -2.8294    1.0000 </r>
       <r>   -2.8241    1.0000 </r>
       <r>   -2.7039    1.0000 </r>
       <r>   -2.4994    1.0000 </r>
       <r>   -2.4289    1.0000 </r>
       <r>   -2.3422    1.0000 </r>
       <r>   -2.3073    1.0000 </r>
       <r>   -2.2795    1.0000 </r>
       <r>   -2.2568    1.0000 </r>
       <r>   -1.9439    1.0000 </r>
       <r>   -1.8300    1.0000 </r>
       <r>   -1.6647    1.0000 </r>
       <r>    0.2569    0.0000 </r>
       <r>    0.3118    0.0000 </r>
       <r>    0.3675    0.0000 </r>
       <r>    0.3928    0.0000 </r>
       <r>    0.4734    0.0000 </r>
       <r>    0.5374    0.0000 </r>
       <r>    0.5802    0.0000 </r>
       <r>    0.6133    0.0000 </r>
       <r>    0.6935    0.0000 </r>
       <r>    0.7754    0.0000 </r>
       <r>    0.8282    0.0000 </r>
       <r>    0.8943    0.0000 </r>
       <r>    0.9235    0.0000 </r>
       <r>    0.9851    0.0000 </r>
       <r>    1.0192    0.0000 </r>
       <r>    1.0398    0.0000 </r>
       <r>    1.0904    0.0000 </r>
       <r>    1.1977    0.0000 </r>
       <r>    1.2774    0.0000 </r>
       <r>    1.3866    0.0000 </r>
       <r>    1.4609    0.0000 </r>
       <r>    1.5127    0.0000 </r>
       <r>    1.5510    0.0000 </r>
      </set>
      <set comment="kpoint 7">
       <r>  -62.4986    1.0000 </r>
       <r>  -62.4895    1.0000 </r>
       <r>  -62.4850    1.0000 </r>
       <r>  -62.4766    1.0000 </r>
       <r>  -62.4668    1.0000 </r>
       <r>  -62.4618    1.0000 </r>
       <r>  -62.4590    1.0000 </r>
       <r>  -62.4539    1.0000 </r>
       <r>  -62.4401    1.0000 </r>
       <r>  -36.8082    1.0000 </r>
       <r>  -36.7920    1.0000 </r>
       <r>  -36.7791    1.0000 </r>
       <r>  -36.7411    1.0000 </r>
       <r>  -36.7382    1.0000 </r>
       <r>  -36.6984    1.0000 </r>
       <r>  -36.6317    1.0000 </r>
       <r>  -36.6214    1.0000 </r>
       <r>  -36.6145    1.0000 </r>
       <r>  -36.6061    1.0000 </r>
       <r>  -36.5999    1.0000 </r>
       <r>  -36.5906    1.0000 </r>
       <r>  -36.5823    1.0000 </r>
       <r>  -36.5783    1.0000 </r>
       <r>  -36.5750    1.0000 </r>
       <r>  -36.5695    1.0000 </r>
       <r>  -36.5674    1.0000 </r>
       <r>  -36.5571    1.0000 </r>
       <r>  -36.5533    1.0000 </r>
       <r>  -36.5469    1.0000 </r>
       <r>  -36.5404    1.0000 </r>
       <r>  -36.5319    1.0000 </r>
       <r>  -36.5185    1.0000 </r>
       <r>  -36.5008    1.0000 </r>
       <r>  -36.4827    1.0000 </r>
       <r>  -36.4649    1.0000 </r>
       <r>  -36.4542    1.0000 </r>
       <r>  -15.4328    1.0000 </r>
       <r>  -15.1886    1.0000 </r>
       <r>  -14.9469    1.0000 </r>
       <r>  -14.4048    1.0000 </r>
       <r>  -14.2931    1.0000 </r>
       <r>  -14.1867    1.0000 </r>
       <r>  -14.1314    1.0000 </r>
       <r>  -14.0583    1.0000 </r>
       <r>  -13.9615    1.0000 </r>
       <r>  -13.8922    1.0000 </r>
       <r>  -13.8662    1.0000 </r>
       <r>  -13.8016    1.0000 </r>
       <r>  -13.7761    1.0000 </r>
       <r>  -13.7283    1.0000 </r>
       <r>  -13.6833    1.0000 </r>
       <r>  -13.6319    1.0000 </r>
       <r>  -13.5847    1.0000 </r>
       <r>  -13.5429    1.0000 </r>
       <r>   -7.3474    1.0000 </r>
       <r>   -7.1763    1.0000 </r>
       <r>   -7.0351    1.0000 </r>
       <r>   -6.9439    1.0000 </r>
       <r>   -6.8569    1.0000 </r>
       <r>   -6.7845    1.0000 </r>
       <r>   -6.7392    1.0000 </r>
       <r>   -6.6895    1.0000 </r>
       <r>   -6.6464    1.0000 </r>
       <r>   -6.5889    1.0000 </r>
       <r>   -6.5586    1.0000 </r>
       <r>   -6.4803    1.0000 </r>
       <r>   -6.4048    1.0000 </r>
       <r>   -6.1987    1.0000 </r>
       <r>   -5.7685    1.0000 </r>
       <r>   -5.7252    1.0000 </r>
       <r>   -5.5948    1.0000 </r>
       <r>   -5.5539    1.0000 </r>
       <r>   -5.4247    1.0000 </r>
       <r>   -5.3843    1.0000 </r>
       <r>   -5.3616    1.0000 </r>
       <r>   -5.2892    1.0000 </r>
       <r>   -5.2321    1.0000 </r>
       <r>   -5.0512    1.0000 </r>
       <r>   -4.9893    1.0000 </r>
       <r>   -4.9183    1.0000 </r>
       <r>   -4.9084    1.0000 </r>
       <r>   -4.8462    1.0000 </r>
       <r>   -4.8229    1.0000 </r>
       <r>   -4.7555    1.0000 </r>
       <r>   -4.7430    1.0000 </r>
       <r>   -4.6765    1.0000 </r>
       <r>   -4.4929    1.0000 </r>
       <r>   -4.4185    1.0000 </r>
       <r>   -4.3101    1.0000 </r>
       <r>   -4.0547    1.0000 </r>
       <r>   -4.0221    1.0000 </r>
       <r>   -3.9436    1.0000 </r>
       <r>   -3.9060    1.0000 </r>
       <r>   -3.7766    1.0000 </r>
       <r>   -3.7136    1.0000 </r>
       <r>   -3.6988    1.0000 </r>
       <r>   -3.5863    1.0000 </r>
       <r>   -3.5128    1.0000 </r>
       <r>   -3.4423    1.0000 </r>
       <r>   -3.4168    1.0000 </r>
       <r>   -3.4002    1.0000 </r>
       <r>   -3.2526    1.0000 </r>
       <r>   -3.0935    1.0000 </r>
       <r>   -2.9034    1.0000 </r>
       <r>   -2.8281    1.0000 </r>
       <r>   -2.6800    1.0000 </r>
       <r>   -2.6484    1.0000 </r>
       <r>   -2.5635    1.0000 </r>
       <r>   -2.4669    1.0000 </r>
       <r>   -2.3165    1.0000 </r>
       <r>   -2.2435    1.0000 </r>
       <r>   -2.1871    1.0000 </r>
       <r>   -2.1454    1.0000 </r>
       <r>   -2.0785    1.0000 </r>
       <r>   -2.0387    1.0000 </r>
       <r>   -1.9583    1.0000 </r>
       <r>   -1.7925    1.0000 </r>
       <r>    0.2780    0.0000 </r>
       <r>    0.4281    0.0000 </r>
       <r>    0.4577    0.0000 </r>
       <r>    0.4905    0.0000 </r>
       <r>    0.5272    0.0000 </r>
       <r>    0.5433    0.0000 </r>
       <r>    0.6187    0.0000 </r>
       <r>    0.6509    0.0000 </r>
       <r>    0.7421    0.0000 </r>
       <r>    0.7752    0.0000 </r>
       <r>    0.8206    0.0000 </r>
       <r>    0.8626    0.0000 </r>
       <r>    0.8777    0.0000 </r>
       <r>    0.9094    0.0000 </r>
       <r>    0.9808    0.0000 </r>
       <r>    1.0073    0.0000 </r>
       <r>    1.0720    0.0000 </r>
       <r>    1.1047    0.0000 </r>
       <r>    1.1474    0.0000 </r>
       <r>    1.2275    0.0000 </r>
       <r>    1.2726    0.0000 </r>
       <r>    1.3786    0.0000 </r>
       <r>    1.5246    0.0000 </r>
      </set>
      <set comment="kpoint 8">
       <r>  -62.4986    1.0000 </r>
       <r>  -62.4895    1.0000 </r>
       <r>  -62.4850    1.0000 </r>
       <r>  -62.4766    1.0000 </r>
       <r>  -62.4669    1.0000 </r>
       <r>  -62.4622    1.0000 </r>
       <r>  -62.4587    1.0000 </r>
       <r>  -62.4538    1.0000 </r>
       <r>  -62.4402    1.0000 </r>
       <r>  -36.8071    1.0000 </r>
       <r>  -36.7939    1.0000 </r>
       <r>  -36.7784    1.0000 </r>
       <r>  -36.7458    1.0000 </r>
       <r>  -36.7328    1.0000 </r>
       <r>  -36.6991    1.0000 </r>
       <r>  -36.6308    1.0000 </r>
       <r>  -36.6217    1.0000 </r>
       <r>  -36.6140    1.0000 </r>
       <r>  -36.6069    1.0000 </r>
       <r>  -36.5973    1.0000 </r>
       <r>  -36.5894    1.0000 </r>
       <r>  -36.5861    1.0000 </r>
       <r>  -36.5795    1.0000 </r>
       <r>  -36.5751    1.0000 </r>
       <r>  -36.5696    1.0000 </r>
       <r>  -36.5668    1.0000 </r>
       <r>  -36.5572    1.0000 </r>
       <r>  -36.5534    1.0000 </r>
       <r>  -36.5475    1.0000 </r>
       <r>  -36.5405    1.0000 </r>
       <r>  -36.5280    1.0000 </r>
       <r>  -36.5172    1.0000 </r>
       <r>  -36.5065    1.0000 </r>
       <r>  -36.4785    1.0000 </r>
       <r>  -36.4675    1.0000 </r>
       <r>  -36.4536    1.0000 </r>
       <r>  -15.4340    1.0000 </r>
       <r>  -15.1842    1.0000 </r>
       <r>  -14.9505    1.0000 </r>
       <r>  -14.4063    1.0000 </r>
       <r>  -14.2913    1.0000 </r>
       <r>  -14.1883    1.0000 </r>
       <r>  -14.1272    1.0000 </r>
       <r>  -14.0762    1.0000 </r>
       <r>  -13.9088    1.0000 </r>
       <r>  -13.8961    1.0000 </r>
       <r>  -13.8783    1.0000 </r>
       <r>  -13.8459    1.0000 </r>
       <r>  -13.7550    1.0000 </r>
       <r>  -13.7363    1.0000 </r>
       <r>  -13.6500    1.0000 </r>
       <r>  -13.6394    1.0000 </r>
       <r>  -13.6091    1.0000 </r>
       <r>  -13.5343    1.0000 </r>
       <r>   -7.3450    1.0000 </r>
       <r>   -7.1915    1.0000 </r>
       <r>   -7.0290    1.0000 </r>
       <r>   -6.9376    1.0000 </r>
       <r>   -6.8370    1.0000 </r>
       <r>   -6.7951    1.0000 </r>
       <r>   -6.7594    1.0000 </r>
       <r>   -6.6869    1.0000 </r>
       <r>   -6.6545    1.0000 </r>
       <r>   -6.5850    1.0000 </r>
       <r>   -6.5414    1.0000 </r>
       <r>   -6.4432    1.0000 </r>
       <r>   -6.4202    1.0000 </r>
       <r>   -6.2194    1.0000 </r>
       <r>   -5.7717    1.0000 </r>
       <r>   -5.7200    1.0000 </r>
       <r>   -5.5926    1.0000 </r>
       <r>   -5.5569    1.0000 </r>
       <r>   -5.4292    1.0000 </r>
       <r>   -5.3856    1.0000 </r>
       <r>   -5.3616    1.0000 </r>
       <r>   -5.2898    1.0000 </r>
       <r>   -5.2484    1.0000 </r>
       <r>   -5.0602    1.0000 </r>
       <r>   -4.9718    1.0000 </r>
       <r>   -4.9297    1.0000 </r>
       <r>   -4.8917    1.0000 </r>
       <r>   -4.8599    1.0000 </r>
       <r>   -4.8098    1.0000 </r>
       <r>   -4.7749    1.0000 </r>
       <r>   -4.7448    1.0000 </r>
       <r>   -4.6545    1.0000 </r>
       <r>   -4.4786    1.0000 </r>
       <r>   -4.4275    1.0000 </r>
       <r>   -4.3267    1.0000 </r>
       <r>   -4.0732    1.0000 </r>
       <r>   -4.0145    1.0000 </r>
       <r>   -3.9304    1.0000 </r>
       <r>   -3.9119    1.0000 </r>
       <r>   -3.7855    1.0000 </r>
       <r>   -3.7096    1.0000 </r>
       <r>   -3.6769    1.0000 </r>
       <r>   -3.6007    1.0000 </r>
       <r>   -3.4948    1.0000 </r>
       <r>   -3.4557    1.0000 </r>
       <r>   -3.4264    1.0000 </r>
       <r>   -3.3817    1.0000 </r>
       <r>   -3.2463    1.0000 </r>
       <r>   -3.0931    1.0000 </r>
       <r>   -2.9007    1.0000 </r>
       <r>   -2.8244    1.0000 </r>
       <r>   -2.6829    1.0000 </r>
       <r>   -2.6455    1.0000 </r>
       <r>   -2.5667    1.0000 </r>
       <r>   -2.4668    1.0000 </r>
       <r>   -2.3227    1.0000 </r>
       <r>   -2.2407    1.0000 </r>
       <r>   -2.1790    1.0000 </r>
       <r>   -2.1457    1.0000 </r>
       <r>   -2.0951    1.0000 </r>
       <r>   -2.0278    1.0000 </r>
       <r>   -1.9591    1.0000 </r>
       <r>   -1.7982    1.0000 </r>
       <r>    0.2766    0.0000 </r>
       <r>    0.4159    0.0000 </r>
       <r>    0.4572    0.0000 </r>
       <r>    0.4661    0.0000 </r>
       <r>    0.5333    0.0000 </r>
       <r>    0.5654    0.0000 </r>
       <r>    0.6265    0.0000 </r>
       <r>    0.6503    0.0000 </r>
       <r>    0.7447    0.0000 </r>
       <r>    0.7917    0.0000 </r>
       <r>    0.8063    0.0000 </r>
       <r>    0.8667    0.0000 </r>
       <r>    0.8987    0.0000 </r>
       <r>    0.9477    0.0000 </r>
       <r>    0.9772    0.0000 </r>
       <r>    1.0042    0.0000 </r>
       <r>    1.0334    0.0000 </r>
       <r>    1.1244    0.0000 </r>
       <r>    1.1546    0.0000 </r>
       <r>    1.1927    0.0000 </r>
       <r>    1.2628    0.0000 </r>
       <r>    1.4039    0.0000 </r>
       <r>    1.5096    0.0000 </r>
      </set>
      <set comment="kpoint 9">
       <r>  -62.5007    1.0000 </r>
       <r>  -62.4873    1.0000 </r>
       <r>  -62.4839    1.0000 </r>
       <r>  -62.4762    1.0000 </r>
       <r>  -62.4680    1.0000 </r>
       <r>  -62.4630    1.0000 </r>
       <r>  -62.4582    1.0000 </r>
       <r>  -62.4539    1.0000 </r>
       <r>  -62.4401    1.0000 </r>
       <r>  -36.7897    1.0000 </r>
       <r>  -36.7869    1.0000 </r>
       <r>  -36.7653    1.0000 </r>
       <r>  -36.7407    1.0000 </r>
       <r>  -36.7186    1.0000 </r>
       <r>  -36.7122    1.0000 </r>
       <r>  -36.6394    1.0000 </r>
       <r>  -36.6353    1.0000 </r>
       <r>  -36.6313    1.0000 </r>
       <r>  -36.6254    1.0000 </r>
       <r>  -36.6154    1.0000 </r>
       <r>  -36.6082    1.0000 </r>
       <r>  -36.5993    1.0000 </r>
       <r>  -36.5890    1.0000 </r>
       <r>  -36.5814    1.0000 </r>
       <r>  -36.5770    1.0000 </r>
       <r>  -36.5675    1.0000 </r>
       <r>  -36.5539    1.0000 </r>
       <r>  -36.5472    1.0000 </r>
       <r>  -36.5358    1.0000 </r>
       <r>  -36.5310    1.0000 </r>
       <r>  -36.5160    1.0000 </r>
       <r>  -36.5073    1.0000 </r>
[...]
       <r>   -5.3759    1.0000 </r>
       <r>   -5.2269    1.0000 </r>
       <r>   -5.0638    1.0000 </r>
       <r>   -5.0259    1.0000 </r>
       <r>   -4.9427    1.0000 </r>
       <r>   -4.8767    1.0000 </r>
       <r>   -4.8580    1.0000 </r>
       <r>   -4.8126    1.0000 </r>
       <r>   -4.7855    1.0000 </r>
       <r>   -4.7818    1.0000 </r>
       <r>   -4.6962    1.0000 </r>
       <r>   -4.5748    1.0000 </r>
       <r>   -4.5143    1.0000 </r>
       <r>   -4.0865    1.0000 </r>
       <r>   -4.0283    1.0000 </r>
       <r>   -3.9682    1.0000 </r>
       <r>   -3.9289    1.0000 </r>
       <r>   -3.9066    1.0000 </r>
       <r>   -3.7706    1.0000 </r>
       <r>   -3.7505    1.0000 </r>
       <r>   -3.6572    1.0000 </r>
       <r>   -3.5872    1.0000 </r>
       <r>   -3.5398    1.0000 </r>
       <r>   -3.5032    1.0000 </r>
       <r>   -3.3967    1.0000 </r>
       <r>   -3.3265    1.0000 </r>
       <r>   -3.2730    1.0000 </r>
       <r>   -3.2221    1.0000 </r>
       <r>   -2.7529    1.0000 </r>
       <r>   -2.7122    1.0000 </r>
       <r>   -2.6939    1.0000 </r>
       <r>   -2.6323    1.0000 </r>
       <r>   -2.6048    1.0000 </r>
       <r>   -2.4382    1.0000 </r>
       <r>   -2.3318    1.0000 </r>
       <r>   -2.2763    1.0000 </r>
       <r>   -2.1996    1.0000 </r>
       <r>   -2.1592    1.0000 </r>
       <r>   -2.0753    1.0000 </r>
       <r>   -2.0641    1.0000 </r>
       <r>   -1.9266    1.0000 </r>
       <r>   -1.8628    1.0000 </r>
       <r>    0.1983    0.0000 </r>
       <r>    0.3441    0.0000 </r>
       <r>    0.4746    0.0000 </r>
       <r>    0.5170    0.0000 </r>
       <r>    0.5494    0.0000 </r>
       <r>    0.5928    0.0000 </r>
       <r>    0.6091    0.0000 </r>
       <r>    0.6610    0.0000 </r>
       <r>    0.7134    0.0000 </r>
       <r>    0.7480    0.0000 </r>
       <r>    0.8928    0.0000 </r>
       <r>    0.9288    0.0000 </r>
       <r>    0.9744    0.0000 </r>
       <r>    0.9931    0.0000 </r>
       <r>    1.0250    0.0000 </r>
       <r>    1.0557    0.0000 </r>
       <r>    1.1101    0.0000 </r>
       <r>    1.1230    0.0000 </r>
       <r>    1.1376    0.0000 </r>
       <r>    1.1625    0.0000 </r>
       <r>    1.2027    0.0000 </r>
       <r>    1.2185    0.0000 </r>
       <r>    1.6119    0.0000 </r>
      </set>
     </set>
    </set>
   </array>
  </eigenvalues>
  <separator name="orbital magnetization" >
   <v name="MAGDIPOLOUT">      0.00000000      0.00000000      0.00000000</v>
  </separator>
  <dos>
   <i name="efermi">     -1.33939757 </i>
   <total>
    <array>
     <dimension dim="1">gridpoints</dimension>
     <dimension dim="2">spin</dimension>
     <field>energy</field>
     <field>total</field>
     <field>integrated</field>
     <set>
      <set comment="spin 1">
       <r>   -65.7158     0.0000     0.0000 </r>
       <r>   -65.4802     0.0000     0.0000 </r>
       <r>   -65.2446     0.0000     0.0000 </r>
       <r>   -65.0090     0.0000     0.0000 </r>
       <r>   -64.7734     0.0000     0.0000 </r>
       <r>   -64.5378     0.0000     0.0000 </r>
       <r>   -64.3022     0.0000     0.0000 </r>
       <r>   -64.0666     0.0000     0.0000 </r>
       <r>   -63.8310     0.0000     0.0000 </r>
       <r>   -63.5954     0.0000     0.0000 </r>
       <r>   -63.3598     0.0000     0.0000 </r>
       <r>   -63.1242     0.0000     0.0000 </r>
       <r>   -62.8886     0.0000     0.0000 </r>
       <r>   -62.6530     0.0001     0.0000 </r>
       <r>   -62.4174    69.4168    16.3543 </r>
       <r>   -62.1818     6.9854    18.0000 </r>
       <r>   -61.9462     0.0000    18.0000 </r>
       <r>   -61.7106     0.0000    18.0000 </r>
       <r>   -61.4750     0.0000    18.0000 </r>
       <r>   -61.2394     0.0000    18.0000 </r>
       <r>   -61.0039     0.0000    18.0000 </r>
       <r>   -60.7683     0.0000    18.0000 </r>
       <r>   -60.5327     0.0000    18.0000 </r>
       <r>   -60.2971     0.0000    18.0000 </r>
       <r>   -60.0615     0.0000    18.0000 </r>
       <r>   -59.8259     0.0000    18.0000 </r>
       <r>   -59.5903     0.0000    18.0000 </r>
       <r>   -59.3547     0.0000    18.0000 </r>
       <r>   -59.1191     0.0000    18.0000 </r>
       <r>   -58.8835     0.0000    18.0000 </r>
       <r>   -58.6479     0.0000    18.0000 </r>
       <r>   -58.4123     0.0000    18.0000 </r>
       <r>   -58.1767     0.0000    18.0000 </r>
       <r>   -57.9411     0.0000    18.0000 </r>
       <r>   -57.7055     0.0000    18.0000 </r>
       <r>   -57.4699     0.0000    18.0000 </r>
       <r>   -57.2343     0.0000    18.0000 </r>
       <r>   -56.9987     0.0000    18.0000 </r>
       <r>   -56.7631     0.0000    18.0000 </r>
       <r>   -56.5275     0.0000    18.0000 </r>
       <r>   -56.2920     0.0000    18.0000 </r>
       <r>   -56.0564     0.0000    18.0000 </r>
       <r>   -55.8208     0.0000    18.0000 </r>
       <r>   -55.5852     0.0000    18.0000 </r>
       <r>   -55.3496     0.0000    18.0000 </r>
       <r>   -55.1140     0.0000    18.0000 </r>
       <r>   -54.8784     0.0000    18.0000 </r>
       <r>   -54.6428     0.0000    18.0000 </r>
       <r>   -54.4072     0.0000    18.0000 </r>
       <r>   -54.1716     0.0000    18.0000 </r>
       <r>   -53.9360     0.0000    18.0000 </r>
       <r>   -53.7004     0.0000    18.0000 </r>
       <r>   -53.4648     0.0000    18.0000 </r>
       <r>   -53.2292     0.0000    18.0000 </r>
       <r>   -52.9936     0.0000    18.0000 </r>
       <r>   -52.7580     0.0000    18.0000 </r>
       <r>   -52.5224     0.0000    18.0000 </r>
       <r>   -52.2868     0.0000    18.0000 </r>
       <r>   -52.0512     0.0000    18.0000 </r>
       <r>   -51.8156     0.0000    18.0000 </r>
       <r>   -51.5800     0.0000    18.0000 </r>
       <r>   -51.3445     0.0000    18.0000 </r>
       <r>   -51.1089     0.0000    18.0000 </r>
       <r>   -50.8733     0.0000    18.0000 </r>
       <r>   -50.6377     0.0000    18.0000 </r>
       <r>   -50.4021     0.0000    18.0000 </r>
       <r>   -50.1665     0.0000    18.0000 </r>
       <r>   -49.9309     0.0000    18.0000 </r>
       <r>   -49.6953     0.0000    18.0000 </r>
       <r>   -49.4597     0.0000    18.0000 </r>
       <r>   -49.2241     0.0000    18.0000 </r>
       <r>   -48.9885     0.0000    18.0000 </r>
       <r>   -48.7529     0.0000    18.0000 </r>
       <r>   -48.5173     0.0000    18.0000 </r>
       <r>   -48.2817     0.0000    18.0000 </r>
       <r>   -48.0461     0.0000    18.0000 </r>
       <r>   -47.8105     0.0000    18.0000 </r>
       <r>   -47.5749     0.0000    18.0000 </r>
       <r>   -47.3393     0.0000    18.0000 </r>
       <r>   -47.1037     0.0000    18.0000 </r>
       <r>   -46.8681     0.0000    18.0000 </r>
       <r>   -46.6326     0.0000    18.0000 </r>
       <r>   -46.3970     0.0000    18.0000 </r>
       <r>   -46.1614     0.0000    18.0000 </r>
       <r>   -45.9258     0.0000    18.0000 </r>
       <r>   -45.6902     0.0000    18.0000 </r>
       <r>   -45.4546     0.0000    18.0000 </r>
       <r>   -45.2190     0.0000    18.0000 </r>
       <r>   -44.9834     0.0000    18.0000 </r>
       <r>   -44.7478     0.0000    18.0000 </r>
       <r>   -44.5122     0.0000    18.0000 </r>
       <r>   -44.2766     0.0000    18.0000 </r>
       <r>   -44.0410     0.0000    18.0000 </r>
       <r>   -43.8054     0.0000    18.0000 </r>
       <r>   -43.5698     0.0000    18.0000 </r>
       <r>   -43.3342     0.0000    18.0000 </r>
       <r>   -43.0986     0.0000    18.0000 </r>
       <r>   -42.8630     0.0000    18.0000 </r>
       <r>   -42.6274     0.0000    18.0000 </r>
       <r>   -42.3918     0.0000    18.0000 </r>
       <r>   -42.1562     0.0000    18.0000 </r>
       <r>   -41.9207     0.0000    18.0000 </r>
       <r>   -41.6851     0.0000    18.0000 </r>
       <r>   -41.4495     0.0000    18.0000 </r>
       <r>   -41.2139     0.0000    18.0000 </r>
       <r>   -40.9783     0.0000    18.0000 </r>
       <r>   -40.7427     0.0000    18.0000 </r>
       <r>   -40.5071     0.0000    18.0000 </r>
       <r>   -40.2715     0.0000    18.0000 </r>
       <r>   -40.0359     0.0000    18.0000 </r>
       <r>   -39.8003     0.0000    18.0000 </r>
       <r>   -39.5647     0.0000    18.0000 </r>
       <r>   -39.3291     0.0000    18.0000 </r>
       <r>   -39.0935     0.0000    18.0000 </r>
       <r>   -38.8579     0.0000    18.0000 </r>
       <r>   -38.6223     0.0000    18.0000 </r>
       <r>   -38.3867     0.0000    18.0000 </r>
       <r>   -38.1511     0.0000    18.0000 </r>
       <r>   -37.9155     0.0000    18.0000 </r>
       <r>   -37.6799     0.0000    18.0000 </r>
       <r>   -37.4443     0.0000    18.0000 </r>
       <r>   -37.2087     0.0000    18.0000 </r>
       <r>   -36.9732     0.0000    18.0000 </r>
       <r>   -36.7376    31.8715    25.5088 </r>
       <r>   -36.5020   160.4761    63.3161 </r>
       <r>   -36.2664    36.8592    72.0000 </r>
       <r>   -36.0308     0.0000    72.0000 </r>
       <r>   -35.7952     0.0000    72.0000 </r>
       <r>   -35.5596     0.0000    72.0000 </r>
       <r>   -35.3240     0.0000    72.0000 </r>
       <r>   -35.0884     0.0000    72.0000 </r>
       <r>   -34.8528     0.0000    72.0000 </r>
       <r>   -34.6172     0.0000    72.0000 </r>
       <r>   -34.3816     0.0000    72.0000 </r>
       <r>   -34.1460     0.0000    72.0000 </r>
       <r>   -33.9104     0.0000    72.0000 </r>
       <r>   -33.6748     0.0000    72.0000 </r>
       <r>   -33.4392     0.0000    72.0000 </r>
       <r>   -33.2036     0.0000    72.0000 </r>
       <r>   -32.9680     0.0000    72.0000 </r>
       <r>   -32.7324     0.0000    72.0000 </r>
       <r>   -32.4968     0.0000    72.0000 </r>
       <r>   -32.2613     0.0000    72.0000 </r>
       <r>   -32.0257     0.0000    72.0000 </r>
       <r>   -31.7901     0.0000    72.0000 </r>
       <r>   -31.5545     0.0000    72.0000 </r>
       <r>   -31.3189     0.0000    72.0000 </r>
       <r>   -31.0833     0.0000    72.0000 </r>
       <r>   -30.8477     0.0000    72.0000 </r>
       <r>   -30.6121     0.0000    72.0000 </r>
       <r>   -30.3765     0.0000    72.0000 </r>
       <r>   -30.1409     0.0000    72.0000 </r>
       <r>   -29.9053     0.0000    72.0000 </r>
       <r>   -29.6697     0.0000    72.0000 </r>
       <r>   -29.4341     0.0000    72.0000 </r>
       <r>   -29.1985     0.0000    72.0000 </r>
       <r>   -28.9629     0.0000    72.0000 </r>
       <r>   -28.7273     0.0000    72.0000 </r>
       <r>   -28.4917     0.0000    72.0000 </r>
       <r>   -28.2561     0.0000    72.0000 </r>
       <r>   -28.0205     0.0000    72.0000 </r>
       <r>   -27.7849     0.0000    72.0000 </r>
       <r>   -27.5494     0.0000    72.0000 </r>
       <r>   -27.3138     0.0000    72.0000 </r>
       <r>   -27.0782     0.0000    72.0000 </r>
       <r>   -26.8426     0.0000    72.0000 </r>
       <r>   -26.6070     0.0000    72.0000 </r>
       <r>   -26.3714     0.0000    72.0000 </r>
       <r>   -26.1358     0.0000    72.0000 </r>
       <r>   -25.9002     0.0000    72.0000 </r>
       <r>   -25.6646     0.0000    72.0000 </r>
       <r>   -25.4290     0.0000    72.0000 </r>
       <r>   -25.1934     0.0000    72.0000 </r>
       <r>   -24.9578     0.0000    72.0000 </r>
       <r>   -24.7222     0.0000    72.0000 </r>
       <r>   -24.4866     0.0000    72.0000 </r>
       <r>   -24.2510     0.0000    72.0000 </r>
       <r>   -24.0154     0.0000    72.0000 </r>
       <r>   -23.7798     0.0000    72.0000 </r>
       <r>   -23.5442     0.0000    72.0000 </r>
       <r>   -23.3086     0.0000    72.0000 </r>
       <r>   -23.0730     0.0000    72.0000 </r>
       <r>   -22.8374     0.0000    72.0000 </r>
       <r>   -22.6019     0.0000    72.0000 </r>
       <r>   -22.3663     0.0000    72.0000 </r>
       <r>   -22.1307     0.0000    72.0000 </r>
       <r>   -21.8951     0.0000    72.0000 </r>
       <r>   -21.6595     0.0000    72.0000 </r>
       <r>   -21.4239     0.0000    72.0000 </r>
       <r>   -21.1883     0.0000    72.0000 </r>
       <r>   -20.9527     0.0000    72.0000 </r>
       <r>   -20.7171     0.0000    72.0000 </r>
       <r>   -20.4815     0.0000    72.0000 </r>
       <r>   -20.2459     0.0000    72.0000 </r>
       <r>   -20.0103     0.0000    72.0000 </r>
       <r>   -19.7747     0.0000    72.0000 </r>
       <r>   -19.5391     0.0000    72.0000 </r>
       <r>   -19.3035     0.0000    72.0000 </r>
       <r>   -19.0679     0.0000    72.0000 </r>
       <r>   -18.8323     0.0000    72.0000 </r>
       <r>   -18.5967     0.0000    72.0000 </r>
       <r>   -18.3611     0.0000    72.0000 </r>
       <r>   -18.1255     0.0000    72.0000 </r>
       <r>   -17.8900     0.0000    72.0000 </r>
       <r>   -17.6544     0.0000    72.0000 </r>
       <r>   -17.4188     0.0000    72.0000 </r>
       <r>   -17.1832     0.0000    72.0000 </r>
       <r>   -16.9476     0.0000    72.0000 </r>
       <r>   -16.7120     0.0000    72.0000 </r>
       <r>   -16.4764     0.0000    72.0000 </r>
       <r>   -16.2408     0.0000    72.0000 </r>
       <r>   -16.0052     0.0000    72.0000 </r>
       <r>   -15.7696     0.0614    72.0145 </r>
       <r>   -15.5340     4.0512    72.9689 </r>
       <r>   -15.2984     4.5165    74.0330 </r>
       <r>   -15.0628     5.1781    75.2529 </r>
       <r>   -14.8272     6.0382    76.6755 </r>
       <r>   -14.5916     6.5797    78.2256 </r>
       <r>   -14.3560     9.9214    80.5631 </r>
       <r>   -14.1204    20.3343    85.3537 </r>
       <r>   -13.8848    30.2617    92.4833 </r>
       <r>   -13.6492    40.5831   102.0444 </r>
       <r>   -13.4136    25.0912   107.9558 </r>
       <r>   -13.1781     0.1876   108.0000 </r>
       <r>   -12.9425     0.0000   108.0000 </r>
       <r>   -12.7069     0.0000   108.0000 </r>
       <r>   -12.4713     0.0000   108.0000 </r>
       <r>   -12.2357     0.0000   108.0000 </r>
       <r>   -12.0001     0.0000   108.0000 </r>
       <r>   -11.7645     0.0000   108.0000 </r>
       <r>   -11.5289     0.0000   108.0000 </r>
       <r>   -11.2933     0.0000   108.0000 </r>
       <r>   -11.0577     0.0000   108.0000 </r>
       <r>   -10.8221     0.0000   108.0000 </r>
       <r>   -10.5865     0.0000   108.0000 </r>
       <r>   -10.3509     0.0000   108.0000 </r>
       <r>   -10.1153     0.0000   108.0000 </r>
       <r>    -9.8797     0.0000   108.0000 </r>
       <r>    -9.6441     0.0000   108.0000 </r>
       <r>    -9.4085     0.0000   108.0000 </r>
       <r>    -9.1729     0.0000   108.0000 </r>
       <r>    -8.9373     0.0000   108.0000 </r>
       <r>    -8.7017     0.0000   108.0000 </r>
       <r>    -8.4661     0.0000   108.0000 </r>
       <r>    -8.2306     0.0000   108.0000 </r>
       <r>    -7.9950     0.0000   108.0000 </r>
       <r>    -7.7594     0.0000   108.0000 </r>
       <r>    -7.5238     0.0008   108.0002 </r>
       <r>    -7.2882     5.3411   109.2585 </r>
       <r>    -7.0526    15.2941   112.8617 </r>
       <r>    -6.8170    25.4707   118.8625 </r>
       <r>    -6.5814    35.9609   127.3347 </r>
       <r>    -6.3458    19.5741   131.9463 </r>
       <r>    -6.1102    12.2047   134.8217 </r>
       <r>    -5.8746     5.3903   136.0916 </r>
       <r>    -5.6390    16.0663   139.8767 </r>
       <r>    -5.4034    42.8726   149.9773 </r>
       <r>    -5.1678    24.1531   155.6676 </r>
       <r>    -4.9322    17.3911   159.7649 </r>
       <r>    -4.6966    37.5502   168.6115 </r>
       <r>    -4.4610    26.7140   174.9052 </r>
       <r>    -4.2254    14.4445   178.3083 </r>
       <r>    -3.9898    16.3588   182.1624 </r>
       <r>    -3.7542    15.6288   185.8444 </r>
       <r>    -3.5187    25.5446   191.8626 </r>
       <r>    -3.2831    39.0534   201.0634 </r>
       <r>    -3.0475    19.8599   205.7423 </r>
       <r>    -2.8119    21.4118   210.7868 </r>
       <r>    -2.5763    21.1315   215.7653 </r>
       <r>    -2.3407    23.9805   221.4150 </r>
       <r>    -2.1051    24.0871   227.0898 </r>
       <r>    -1.8695    16.6419   231.0105 </r>
       <r>    -1.6339    10.9175   233.5826 </r>
       <r>    -1.3983     1.7715   234.0000 </r>
       <r>    -1.1627     0.0000   234.0000 </r>
       <r>    -0.9271     0.0000   234.0000 </r>
       <r>    -0.6915     0.0000   234.0000 </r>
       <r>    -0.4559     0.0000   234.0000 </r>
       <r>    -0.2203     0.0000   234.0000 </r>
       <r>     0.0153     0.3385   234.0798 </r>
       <r>     0.2509     5.4583   235.3657 </r>
       <r>     0.4865    28.0488   241.9739 </r>
       <r>     0.7221    41.0688   251.6495 </r>
       <r>     0.9577    40.1271   261.1032 </r>
       <r>     1.1932    39.4892   270.4067 </r>
       <r>     1.4288    22.7408   275.7643 </r>
       <r>     1.6644    17.2125   279.8195 </r>
       <r>     1.9000     0.7662   280.0000 </r>
       <r>     2.1356     0.0000   280.0000 </r>
       <r>     2.3712     0.0000   280.0000 </r>
       <r>     2.6068     0.0000   280.0000 </r>
       <r>     2.8424     0.0000   280.0000 </r>
       <r>     3.0780     0.0000   280.0000 </r>
       <r>     3.3136     0.0000   280.0000 </r>
       <r>     3.5492     0.0000   280.0000 </r>
       <r>     3.7848     0.0000   280.0000 </r>
       <r>     4.0204     0.0000   280.0000 </r>
       <r>     4.2560     0.0000   280.0000 </r>
       <r>     4.4916     0.0000   280.0000 </r>
       <r>     4.7272     0.0000   280.0000 </r>
       <r>     4.9628     0.0000   280.0000 </r>
      </set>
     </set>
    </array>
   </total>
  </dos>
 </calculation>
 <structure name="finalpos" >
  <crystal>
   <varray name="basis" >
    <v>       9.55219900       0.00000000       0.00000000 </v>
    <v>      -4.77610000       8.27244700       0.00000000 </v>
    <v>       0.00000000       0.00000000      18.12711300 </v>
   </varray>
   <i name="volume">   1432.40555618 </i>
   <varray name="rec_basis" >
    <v>       0.10468794       0.06044161      -0.00000000 </v>
    <v>       0.00000000       0.12088322       0.00000000 </v>
    <v>       0.00000000      -0.00000000       0.05516598 </v>
   </varray>
  </crystal>
  <varray name="positions" >
   <v>       0.00331683       0.99899865       0.50049155 </v>
   <v>       0.32818816       0.33071090       0.49987667 </v>
   <v>       0.65860704       0.99804878       0.50329149 </v>
   <v>       0.33457207       0.99962366       0.50069257 </v>
   <v>       0.33155602       0.66710110       0.49883928 </v>
   <v>       0.67247621       0.33670398       0.50530980 </v>
   <v>       0.99964673       0.33421168       0.49976273 </v>
   <v>       0.67033975       0.66958444       0.49690677 </v>
   <v>       0.99714262       0.66549266       0.49662556 </v>
   <v>       0.55695334       0.10735619       0.58714670 </v>
   <v>       0.22478564       0.10716819       0.58701742 </v>
   <v>       0.22189771       0.11414887       0.41352580 </v>
   <v>       0.22003468       0.44685904       0.58460524 </v>
   <v>       0.22340865       0.44534258       0.40966814 </v>
   <v>       0.21410650       0.77159079       0.58225432 </v>
   <v>       0.22047189       0.77424269       0.41115973 </v>
   <v>       0.56465322       0.11682737       0.41909010 </v>
   <v>       0.55919679       0.78133397       0.41113026 </v>
   <v>       0.55524440       0.45157644       0.58713199 </v>
   <v>       0.55058683       0.76894360       0.58615943 </v>
   <v>       0.55312410       0.43915561       0.41735758 </v>
   <v>       0.89588724       0.10869002       0.58730369 </v>
   <v>       0.87705567       0.10691505       0.41661037 </v>
   <v>       0.89998769       0.44955309       0.58719501 </v>
   <v>       0.89067738       0.44849743       0.41672230 </v>
   <v>       0.88954508       0.77685104       0.58146241 </v>
   <v>       0.89481345       0.78352433       0.40908474 </v>
  </varray>
 </structure>
</modeling>
