<?xml version="1.0" encoding="ISO-8859-1"?>
<modeling>
 <generator>
  <i name="program" type="string">vasp </i>
  <i name="version" type="string">6.2.0  </i>
  <i name="subversion" type="string">18Jan21 (build Mar 25 2021 14:28:09) complex                          parallel </i>
  <i name="platform" type="string">LinuxGNU </i>
  <i name="date" type="string">2021 12 20 </i>
  <i name="time" type="string">09:53:50 </i>
 </generator>
 <incar>
  <i type="string" name="SYSTEM">benzene</i>
  <i type="int" name="ISTART">     0</i>
  <i type="string" name="PREC">Accurate</i>
  <i type="string" name="ALGO">Normal</i>
  <i type="int" name="NELM">   200</i>
  <i type="int" name="IBRION">    -1</i>
  <i name="EDIFF">      0.00000100</i>
  <i type="int" name="NSW">     0</i>
  <i name="ENCUT">    600.00000000</i>
  <i type="logical" name="LREAL"> F  </i>
  <i type="int" name="ISMEAR">     0</i>
  <i name="SIGMA">      0.05000000</i>
  <i type="logical" name="LWAVE"> F  </i>
  <i type="logical" name="LCHARG"> T  </i>
  <i type="string" name="GGA">PE</i>
 </incar>
 <primitive_cell>
  <structure name="primitive_cell" >
   <crystal>
    <varray name="basis" >
     <v>      10.58354422       0.00000000       0.00000000 </v>
     <v>       0.00000000      10.58354422       0.00000000 </v>
     <v>       0.00000000       0.00000000      10.58354422 </v>
    </varray>
    <i name="volume">   1185.47769178 </i>
    <varray name="rec_basis" >
     <v>       0.09448631       0.00000000       0.00000000 </v>
     <v>       0.00000000       0.09448631       0.00000000 </v>
     <v>       0.00000000       0.00000000       0.09448631 </v>
    </varray>
   </crystal>
   <varray name="positions" >
    <v>       0.50177910       0.63127055       0.50315180 </v>
    <v>       0.38306770       0.56816090       0.51054675 </v>
    <v>       0.38598395       0.43747125       0.49539690 </v>
    <v>       0.49993530       0.36689205       0.49434705 </v>
    <v>       0.61447250       0.43380565       0.51234870 </v>
    <v>       0.61487060       0.56558095       0.49745285 </v>
    <v>       0.50306825       0.73654305       0.49562330 </v>
    <v>       0.29345690       0.61453070       0.51186530 </v>
    <v>       0.29485125       0.38450250       0.48815730 </v>
    <v>       0.50627520       0.26738845       0.49331895 </v>
    <v>       0.70513740       0.37452255       0.51805565 </v>
    <v>       0.69710180       0.61933140       0.47973535 </v>
   </varray>
  </structure>
  <varray name="primitive_index" >
   <v type="int" >        1 </v>
   <v type="int" >        2 </v>
   <v type="int" >        3 </v>
   <v type="int" >        4 </v>
   <v type="int" >        5 </v>
   <v type="int" >        6 </v>
   <v type="int" >        7 </v>
   <v type="int" >        8 </v>
   <v type="int" >        9 </v>
   <v type="int" >       10 </v>
   <v type="int" >       11 </v>
   <v type="int" >       12 </v>
  </varray>
 </primitive_cell>
 <kpoints>
  <generation param="Gamma">
   <v type="int" name="divisions">       1        1        1 </v>
   <v name="usershift">      0.00000000       0.00000000       0.00000000 </v>
   <v name="genvec1">      1.00000000       0.00000000       0.00000000 </v>
   <v name="genvec2">      0.00000000       1.00000000       0.00000000 </v>
   <v name="genvec3">      0.00000000       0.00000000       1.00000000 </v>
   <v name="shift">      0.00000000       0.00000000       0.00000000 </v>
  </generation>
  <varray name="kpointlist" >
   <v>       0.00000000       0.00000000       0.00000000 </v>
  </varray>
  <varray name="weights" >
   <v>       1.00000000 </v>
  </varray>
 </kpoints>
 <parameters>
  <separator name="general" >
   <i type="string" name="SYSTEM">benzene</i>
   <i type="logical" name="LCOMPAT"> F  </i>
  </separator>
  <separator name="electronic" >
   <i type="string" name="PREC">accura</i>
   <i name="ENMAX">    600.00000000</i>
   <i name="ENAUG">    644.87300000</i>
   <i name="EDIFF">      0.00000100</i>
   <i type="int" name="IALGO">    38</i>
   <i type="int" name="IWAVPR">    10</i>
   <i type="int" name="NBANDS">    24</i>
   <i type="int" name="NBANDSLOW">    -1</i>
   <i type="int" name="NBANDSHIGH">    -1</i>
   <i name="NELECT">     30.00000000</i>
   <i type="int" name="TURBO">     0</i>
   <i type="int" name="IRESTART">     0</i>
   <i type="int" name="NREBOOT">     0</i>
   <i type="int" name="NMIN">     0</i>
   <i name="EREF">      0.00000000</i>
   <separator name="electronic smearing" >
    <i type="int" name="ISMEAR">     0</i>
    <i name="SIGMA">      0.05000000</i>
    <i name="KSPACING">      0.50000000</i>
    <i type="logical" name="KGAMMA"> T  </i>
    <i type="logical" name="KBLOWUP"> T  </i>
   </separator>
   <separator name="electronic projectors" >
    <i type="logical" name="LREAL"> F  </i>
    <v name="ROPT">      0.00000000      0.00000000</v>
    <i type="int" name="LMAXPAW">  -100</i>
    <i type="int" name="LMAXMIX">     2</i>
    <i type="logical" name="NLSPLINE"> F  </i>
   </separator>
   <separator name="electronic startup" >
    <i type="int" name="ISTART">     0</i>
    <i type="int" name="ICHARG">     2</i>
    <i type="int" name="INIWAV">     1</i>
   </separator>
   <separator name="electronic spin" >
    <i type="int" name="ISPIN">     1</i>
    <i type="logical" name="LNONCOLLINEAR"> F  </i>
    <v name="MAGMOM">      1.00000000      1.00000000      1.00000000      1.00000000      1.00000000      1.00000000      1.00000000      1.00000000      1.00000000      1.00000000      1.00000000      1.00000000</v>
    <i name="NUPDOWN">     -1.00000000</i>
    <i type="logical" name="LSORBIT"> F  </i>
    <v name="SAXIS">      0.00000000      0.00000000      1.00000000</v>
    <i type="logical" name="LSPIRAL"> F  </i>
    <v name="QSPIRAL">      0.00000000      0.00000000      0.00000000</v>
    <i type="logical" name="LZEROZ"> F  </i>
   </separator>
   <separator name="electronic exchange-correlation" >
    <i type="logical" name="LASPH"> F  </i>
    <i type="logical" name="LMETAGGA"> F  </i>
   </separator>
   <separator name="electronic convergence" >
    <i type="int" name="NELM">   200</i>
    <i type="int" name="NELMDL">    -5</i>
    <i type="int" name="NELMIN">     2</i>
    <i name="ENINI">    600.00000000</i>
    <separator name="electronic convergence detail" >
     <i type="logical" name="LDIAG"> T  </i>
     <i type="logical" name="LSUBROT"> F  </i>
     <i name="WEIMIN">      0.00000000</i>
     <i name="EBREAK">      0.00000001</i>
     <i name="DEPER">      0.30000000</i>
     <i type="int" name="NRMM">     4</i>
     <i name="TIME">      0.40000000</i>
    </separator>
   </separator>
   <separator name="electronic mixer" >
    <i name="AMIX">      0.40000000</i>
    <i name="BMIX">      1.00000000</i>
    <i name="AMIN">      0.10000000</i>
    <i name="AMIX_MAG">      1.60000000</i>
    <i name="BMIX_MAG">      1.00000000</i>
    <separator name="electronic mixer details" >
     <i type="int" name="IMIX">     4</i>
     <i type="logical" name="MIXFIRST"> F  </i>
     <i type="int" name="MAXMIX">   -45</i>
     <i name="WC">    100.00000000</i>
     <i type="int" name="INIMIX">     1</i>
     <i type="int" name="MIXPRE">     1</i>
     <i type="int" name="MREMOVE">     5</i>
    </separator>
   </separator>
   <separator name="electronic dipolcorrection" >
    <i type="logical" name="LDIPOL"> F  </i>
    <i type="logical" name="LMONO"> F  </i>
    <i type="int" name="IDIPOL">     0</i>
    <i name="EPSILON">      1.00000000</i>
    <v name="DIPOL">   -100.00000000   -100.00000000   -100.00000000</v>
    <i name="EFIELD">      0.00000000</i>
   </separator>
  </separator>
  <separator name="grids" >
   <i type="int" name="NGX">    90</i>
   <i type="int" name="NGY">    90</i>
   <i type="int" name="NGZ">    90</i>
   <i type="int" name="NGXF">   180</i>
   <i type="int" name="NGYF">   180</i>
   <i type="int" name="NGZF">   180</i>
   <i type="logical" name="ADDGRID"> F  </i>
  </separator>
  <separator name="ionic" >
   <i type="int" name="NSW">     0</i>
   <i type="int" name="IBRION">    -1</i>
   <i type="int" name="MDALGO">     0</i>
   <i type="int" name="ISIF">     2</i>
   <i name="PSTRESS">      0.00000000</i>
   <i name="EDIFFG">      0.00001000</i>
   <i type="int" name="NFREE">     0</i>
   <i name="POTIM">      0.50000000</i>
   <i name="SMASS">     -3.00000000</i>
   <i name="SCALEE">      1.00000000</i>
  </separator>
  <separator name="ionic md" >
   <i name="TEBEG">      0.00010000</i>
   <i name="TEEND">      0.00010000</i>
   <i type="int" name="NBLOCK">     1</i>
   <i type="int" name="KBLOCK">     1</i>
   <i type="int" name="NPACO">   256</i>
   <i name="APACO">     16.00000000</i>
  </separator>
  <separator name="symmetry" >
   <i type="int" name="ISYM">     2</i>
   <i name="SYMPREC">      0.00001000</i>
  </separator>
  <separator name="dos" >
   <i type="int" name="LORBIT">     0</i>
   <v name="RWIGS">     -1.00000000     -1.00000000</v>
   <i type="int" name="NEDOS">   301</i>
   <i name="EMIN">     10.00000000</i>
   <i name="EMAX">    -10.00000000</i>
   <i name="EFERMI">      0.00000000</i>
  </separator>
  <separator name="writing" >
   <i type="int" name="NWRITE">     2</i>
   <i type="logical" name="LWAVE"> F  </i>
   <i type="logical" name="LDOWNSAMPLE"> F  </i>
   <i type="logical" name="LCHARG"> T  </i>
   <i type="logical" name="LPARD"> F  </i>
   <i type="logical" name="LVTOT"> F  </i>
   <i type="logical" name="LVHAR"> F  </i>
   <i type="logical" name="LELF"> F  </i>
   <i type="logical" name="LOPTICS"> F  </i>
   <v name="STM">      0.00000000      0.00000000      0.00000000      0.00000000      0.00000000      0.00000000      0.00000000</v>
  </separator>
  <separator name="performance" >
   <i type="int" name="NPAR">     4</i>
   <i type="int" name="NSIM">     4</i>
   <i type="int" name="NBLK">    -1</i>
   <i type="logical" name="LPLANE"> T  </i>
   <i type="logical" name="LSCALAPACK"> T  </i>
   <i type="logical" name="LSCAAWARE"> F  </i>
   <i type="logical" name="LSCALU"> F  </i>
   <i type="logical" name="LASYNC"> F  </i>
   <i type="logical" name="LORBITALREAL"> F  </i>
  </separator>
  <separator name="miscellaneous" >
   <i type="int" name="IDIOT">     3</i>
   <i type="int" name="PHON_NSTRUCT">    -1</i>
   <i type="logical" name="LMUSIC"> F  </i>
   <v name="POMASS">     12.01100000      1.00000000</v>
   <v name="DARWINR">      0.00000000      0.00000000</v>
   <v name="DARWINV">      1.00000000      1.00000000</v>
   <i type="logical" name="LCORR"> T  </i>
  </separator>
  <i type="logical" name="GGA_COMPAT"> T  </i>
  <i type="logical" name="LBERRY"> F  </i>
  <i type="int" name="ICORELEVEL">     0</i>
  <i type="logical" name="LDAU"> F  </i>
  <i type="int" name="I_CONSTRAINED_M">     0</i>
  <separator name="electronic exchange-correlation" >
   <i type="string" name="GGA">PE</i>
   <i type="int" name="VOSKOWN">     0</i>
   <i type="logical" name="LHFCALC"> F  </i>
   <i type="string" name="PRECFOCK"></i>
   <i type="logical" name="LSYMGRAD"> F  </i>
   <i type="logical" name="LHFONE"> F  </i>
   <i type="logical" name="LRHFCALC"> F  </i>
   <i type="logical" name="LTHOMAS"> F  </i>
   <i type="logical" name="LMODELHF"> F  </i>
   <i type="logical" name="LFOCKACE"> F  </i>
   <i name="ENCUT4O">     -1.00000000</i>
   <i type="int" name="EXXOEP">     0</i>
   <i type="int" name="FOURORBIT">     0</i>
   <i name="AEXX">      0.00000000</i>
   <i name="HFALPHA">      0.00000000</i>
   <i name="MCALPHA">      0.00000000</i>
   <i name="ALDAX">      1.00000000</i>
   <i name="AGGAX">      1.00000000</i>
   <i name="ALDAC">      1.00000000</i>
   <i name="AGGAC">      1.00000000</i>
   <i type="int" name="NKREDX">     1</i>
   <i type="int" name="NKREDY">     1</i>
   <i type="int" name="NKREDZ">     1</i>
   <i type="logical" name="SHIFTRED"> F  </i>
   <i type="logical" name="ODDONLY"> F  </i>
   <i type="logical" name="EVENONLY"> F  </i>
   <i type="int" name="LMAXFOCK">     0</i>
   <i type="int" name="NMAXFOCKAE">     0</i>
   <i type="logical" name="LFOCKAEDFT"> F  </i>
   <i name="HFSCREEN">      0.00000000</i>
   <i name="HFSCREENC">      0.00000000</i>
   <i type="int" name="NBANDSGWLOW">     0</i>
  </separator>
  <separator name="vdW DFT" >
   <i type="logical" name="LUSE_VDW"> F  </i>
   <i name="Zab_VDW">     -0.84910000</i>
   <i name="PARAM1">      0.12340000</i>
   <i name="PARAM2">      1.00000000</i>
   <i name="PARAM3">      0.00000000</i>
  </separator>
  <separator name="model GW" >
   <i type="int" name="MODEL_GW">     0</i>
   <i name="MODEL_EPS0">     59.27388459</i>
   <i name="MODEL_ALPHA">      1.00000000</i>
  </separator>
  <separator name="linear response parameters" >
   <i type="logical" name="LEPSILON"> F  </i>
   <i type="logical" name="LRPA"> F  </i>
   <i type="logical" name="LNABLA"> F  </i>
   <i type="logical" name="LVEL"> F  </i>
   <i type="int" name="KINTER">     0</i>
   <i name="CSHIFT">      0.10000000</i>
   <i name="OMEGAMAX">     -1.00000000</i>
   <i name="DEG_THRESHOLD">      0.00200000</i>
   <i name="RTIME">     -0.10000000</i>
   <i name="WPLASMAI">      0.00000000</i>
   <v name="DFIELD">      0.00000000      0.00000000      0.00000000</v>
   <v name="WPLASMA">      0.00000000      0.00000000      0.00000000      0.00000000      0.00000000      0.00000000      0.00000000      0.00000000      0.00000000</v>
  </separator>
  <separator name="orbital magnetization" >
   <i type="logical" name="NUCIND"> F  </i>
   <v name="MAGPOS">      0.00000000      0.00000000      0.00000000</v>
   <i type="logical" name="LNICSALL"> T  </i>
   <i type="logical" name="ORBITALMAG"> F  </i>
   <i type="logical" name="LMAGBLOCH"> F  </i>
   <i type="logical" name="LCHIMAG"> F  </i>
   <i type="logical" name="LGAUGE"> T  </i>
   <i type="int" name="MAGATOM">     0</i>
   <v name="MAGDIPOL">      0.00000000      0.00000000      0.00000000</v>
   <v name="AVECCONST">      0.00000000      0.00000000      0.00000000</v>
  </separator>
  <separator name="response functions" >
   <i type="logical" name="LFINITE_TEMPERATURE"> F  </i>
   <i type="logical" name="LADDER"> F  </i>
   <i type="logical" name="LRPAFORCE"> F  </i>
   <i type="logical" name="LFXC"> F  </i>
   <i type="logical" name="LHARTREE"> T  </i>
   <i type="int" name="IBSE">     0</i>
   <v type="int" name="KPOINT">    -1     0     0     0</v>
   <i type="logical" name="LTCTC"> F  </i>
   <i type="logical" name="LTCTE"> F  </i>
   <i type="logical" name="LTETE"> F  </i>
   <i type="logical" name="LTRIPLET"> F  </i>
   <i type="logical" name="LFXCEPS"> F  </i>
   <i type="logical" name="LFXHEG"> F  </i>
   <i type="int" name="NATURALO">     2</i>
   <i type="logical" name="LHOLEGF"> F  </i>
   <i type="logical" name="L2ORDER"> F  </i>
   <i type="logical" name="LDMP1"> F  </i>
   <i type="logical" name="LMP2LT"> F  </i>
   <i type="logical" name="LSMP2LT"> F  </i>
   <i type="logical" name="LGWLF"> F  </i>
   <i name="ENCUTGW">     -2.00000000</i>
   <i name="ENCUTGWSOFT">     -2.00000000</i>
   <i name="ENCUTLF">     -1.00000000</i>
   <i type="logical" name="LESF_SPLINES"> F  </i>
   <i type="int" name="LMAXMP2">    -1</i>
   <i name="SCISSOR">      0.00000000</i>
   <i type="int" name="NOMEGA">     0</i>
   <i type="int" name="NOMEGAR">     0</i>
   <i type="int" name="NBANDSGW">    -1</i>
   <i type="int" name="NBANDSO">    -1</i>
   <i type="int" name="NBANDSV">    -1</i>
   <i type="int" name="NELM">   200</i>
   <i type="int" name="NELMHF">     1</i>
   <i type="int" name="DIM">     3</i>
   <i type="int" name="IESPILON">     4</i>
   <i type="int" name="ANTIRES">     0</i>
   <i name="OMEGAMAX">    -30.00000000</i>
   <i name="OMEGAMIN">    -30.00000000</i>
   <i name="OMEGATL">   -200.00000000</i>
   <i type="int" name="OMEGAGRID">     0</i>
   <i name="CSHIFT">     -0.10000000</i>
   <i type="logical" name="LSELFENERGY"> F  </i>
   <i type="logical" name="LSPECTRAL"> F  </i>
   <i type="logical" name="LSPECTRALGW"> F  </i>
   <i type="logical" name="LSINGLES"> F  </i>
   <i type="logical" name="LFERMIGW"> F  </i>
   <i type="logical" name="ODDONLYGW"> F  </i>
   <i type="logical" name="EVENONLYGW"> F  </i>
   <i type="int" name="NKREDLFX">     1</i>
   <i type="int" name="NKREDLFY">     1</i>
   <i type="int" name="NKREDLFZ">     1</i>
   <i type="int" name="MAXMEM">  2800</i>
   <i type="int" name="TELESCOPE">     0</i>
   <i type="int" name="NTAUPAR">    -1</i>
   <i type="int" name="NOMEGAPAR">    -1</i>
   <i name="DAMP_NEWTON">      0.80000001</i>
   <i name="LAMBDA">      1.00000000</i>
  </separator>
  <separator name="External order field" >
   <i name="OFIELD_KAPPA">      0.00000000</i>
   <v name="OFIELD_K">      0.00000000      0.00000000      0.00000000</v>
   <i name="OFIELD_Q6_NEAR">      0.00000000</i>
   <i name="OFIELD_Q6_FAR">      0.00000000</i>
   <i name="OFIELD_A">      0.00000000</i>
  </separator>
 </parameters>
 <atominfo>
  <atoms>      12 </atoms>
  <types>       2 </types>
  <array name="atoms" >
   <dimension dim="1">ion</dimension>
   <field type="string">element</field>
   <field type="int">atomtype</field>
   <set>
    <rc><c>C </c><c>   1</c></rc>
    <rc><c>C </c><c>   1</c></rc>
    <rc><c>C </c><c>   1</c></rc>
    <rc><c>C </c><c>   1</c></rc>
    <rc><c>C </c><c>   1</c></rc>
    <rc><c>C </c><c>   1</c></rc>
    <rc><c>H </c><c>   2</c></rc>
    <rc><c>H </c><c>   2</c></rc>
    <rc><c>H </c><c>   2</c></rc>
    <rc><c>H </c><c>   2</c></rc>
    <rc><c>H </c><c>   2</c></rc>
    <rc><c>H </c><c>   2</c></rc>
   </set>
  </array>
  <array name="atomtypes" >
   <dimension dim="1">type</dimension>
   <field type="int">atomspertype</field>
   <field type="string">element</field>
   <field>mass</field>
   <field>valence</field>
   <field type="string">pseudopotential</field>
   <set>
    <rc><c>   6</c><c>C </c><c>     12.01100000</c><c>      4.00000000</c><c>  PAW_PBE C 08Apr2002                   </c></rc>
    <rc><c>   6</c><c>H </c><c>      1.00000000</c><c>      1.00000000</c><c>  PAW_PBE H 15Jun2001                   </c></rc>
   </set>
  </array>
 </atominfo>
 <structure name="initialpos" >
  <crystal>
   <varray name="basis" >
    <v>      10.58354422       0.00000000       0.00000000 </v>
    <v>       0.00000000      10.58354422       0.00000000 </v>
    <v>       0.00000000       0.00000000      10.58354422 </v>
   </varray>
   <i name="volume">   1185.47769178 </i>
   <varray name="rec_basis" >
    <v>       0.09448631       0.00000000       0.00000000 </v>
    <v>       0.00000000       0.09448631       0.00000000 </v>
    <v>       0.00000000       0.00000000       0.09448631 </v>
   </varray>
  </crystal>
  <varray name="positions" >
   <v>       0.50177910       0.63127055       0.50315180 </v>
   <v>       0.38306770       0.56816090       0.51054675 </v>
   <v>       0.38598395       0.43747125       0.49539690 </v>
   <v>       0.49993530       0.36689205       0.49434705 </v>
   <v>       0.61447250       0.43380565       0.51234870 </v>
   <v>       0.61487060       0.56558095       0.49745285 </v>
   <v>       0.50306825       0.73654305       0.49562330 </v>
   <v>       0.29345690       0.61453070       0.51186530 </v>
   <v>       0.29485125       0.38450250       0.48815730 </v>
   <v>       0.50627520       0.26738845       0.49331895 </v>
   <v>       0.70513740       0.37452255       0.51805565 </v>
   <v>       0.69710180       0.61933140       0.47973535 </v>
  </varray>
 </structure>
 <calculation>
  <scstep>
   <time name="dav">    0.21    0.21</time>
   <time name="total">    0.47    0.47</time>
   <energy>
    <i name="alphaZ">      3.48814018 </i>
    <i name="ewald">   1117.49538781 </i>
    <i name="hartreedc">  -1754.99904569 </i>
    <i name="XCdc">     91.12568862 </i>
    <i name="pawpsdc">    663.93644290 </i>
    <i name="pawaedc">   -667.40614445 </i>
    <i name="eentropy">     -0.00000000 </i>
    <i name="bandstr">   -197.56860173 </i>
    <i name="atom">    957.82965714 </i>
    <i name="e_fr_energy">    213.90152477 </i>
    <i name="e_wo_entrp">    213.90152477 </i>
    <i name="e_0_energy">    213.90152477 </i>
   </energy>
  </scstep>
  <scstep>
   <time name="dav">    0.25    0.25</time>
   <time name="total">    0.25    0.25</time>
   <energy>
    <i name="e_fr_energy">     -3.98724217 </i>
    <i name="e_wo_entrp">     -3.98724217 </i>
    <i name="e_0_energy">     -3.98724217 </i>
   </energy>
  </scstep>
  <scstep>
   <time name="dav">    0.21    0.21</time>
   <time name="total">    0.21    0.21</time>
   <energy>
    <i name="e_fr_energy">    -78.04988199 </i>
    <i name="e_wo_entrp">    -78.04988199 </i>
    <i name="e_0_energy">    -78.04988199 </i>
   </energy>
  </scstep>
  <scstep>
   <time name="dav">    0.18    0.19</time>
   <time name="total">    0.18    0.19</time>
   <energy>
    <i name="e_fr_energy">    -83.48855987 </i>
    <i name="e_wo_entrp">    -83.48855987 </i>
    <i name="e_0_energy">    -83.48855987 </i>
   </energy>
  </scstep>
  <scstep>
   <time name="dav">    0.25    0.25</time>
   <time name="total">    0.29    0.29</time>
   <energy>
    <i name="e_fr_energy">    -83.60459215 </i>
    <i name="e_wo_entrp">    -83.60459215 </i>
    <i name="e_0_energy">    -83.60459215 </i>
   </energy>
  </scstep>
  <scstep>
   <time name="dav">    0.21    0.22</time>
   <time name="total">    0.51    0.51</time>
   <energy>
    <i name="e_fr_energy">    -77.53377238 </i>
    <i name="e_wo_entrp">    -77.53377238 </i>
    <i name="e_0_energy">    -77.53377238 </i>
   </energy>
  </scstep>
  <scstep>
   <time name="dav">    0.25    0.25</time>
   <time name="total">    0.54    0.55</time>
   <energy>
    <i name="e_fr_energy">    -75.79374496 </i>
    <i name="e_wo_entrp">    -75.79374496 </i>
    <i name="e_0_energy">    -75.79374496 </i>
   </energy>
  </scstep>
  <scstep>
   <time name="dav">    0.23    0.23</time>
   <time name="total">    0.52    0.52</time>
   <energy>
    <i name="e_fr_energy">    -75.62161556 </i>
    <i name="e_wo_entrp">    -75.62161556 </i>
    <i name="e_0_energy">    -75.62161556 </i>
   </energy>
  </scstep>
  <scstep>
   <time name="dav">    0.23    0.23</time>
   <time name="total">    0.52    0.52</time>
   <energy>
    <i name="e_fr_energy">    -75.59565338 </i>
    <i name="e_wo_entrp">    -75.59565338 </i>
    <i name="e_0_energy">    -75.59565338 </i>
   </energy>
  </scstep>
  <scstep>
   <time name="dav">    0.21    0.21</time>
   <time name="total">    0.50    0.50</time>
   <energy>
    <i name="e_fr_energy">    -75.59004513 </i>
    <i name="e_wo_entrp">    -75.59004513 </i>
    <i name="e_0_energy">    -75.59004513 </i>
   </energy>
  </scstep>
  <scstep>
   <time name="dav">    0.19    0.19</time>
   <time name="total">    0.48    0.49</time>
   <energy>
    <i name="e_fr_energy">    -75.58249092 </i>
    <i name="e_wo_entrp">    -75.58249092 </i>
    <i name="e_0_energy">    -75.58249092 </i>
   </energy>
  </scstep>
  <scstep>
   <time name="dav">    0.21    0.21</time>
   <time name="total">    0.49    0.49</time>
   <energy>
    <i name="e_fr_energy">    -75.58910291 </i>
    <i name="e_wo_entrp">    -75.58910291 </i>
    <i name="e_0_energy">    -75.58910291 </i>
   </energy>
  </scstep>
  <scstep>
   <time name="dav">    0.22    0.23</time>
   <time name="total">    0.50    0.51</time>
   <energy>
    <i name="e_fr_energy">    -75.59635052 </i>
    <i name="e_wo_entrp">    -75.59635052 </i>
    <i name="e_0_energy">    -75.59635052 </i>
   </energy>
  </scstep>
  <scstep>
   <time name="dav">    0.21    0.21</time>
   <time name="total">    0.48    0.49</time>
   <energy>
    <i name="e_fr_energy">    -75.60393464 </i>
    <i name="e_wo_entrp">    -75.60393464 </i>
    <i name="e_0_energy">    -75.60393464 </i>
   </energy>
  </scstep>
  <scstep>
   <time name="dav">    0.21    0.21</time>
   <time name="total">    0.48    0.48</time>
   <energy>
    <i name="e_fr_energy">    -75.60722696 </i>
    <i name="e_wo_entrp">    -75.60722696 </i>
    <i name="e_0_energy">    -75.60722696 </i>
   </energy>
  </scstep>
  <scstep>
   <time name="dav">    0.21    0.21</time>
   <time name="total">    0.48    0.48</time>
   <energy>
    <i name="e_fr_energy">    -75.60825636 </i>
    <i name="e_wo_entrp">    -75.60825636 </i>
    <i name="e_0_energy">    -75.60825636 </i>
   </energy>
  </scstep>
  <scstep>
   <time name="dav">    0.21    0.21</time>
   <time name="total">    0.48    0.48</time>
   <energy>
    <i name="e_fr_energy">    -75.60874257 </i>
    <i name="e_wo_entrp">    -75.60874257 </i>
    <i name="e_0_energy">    -75.60874257 </i>
   </energy>
  </scstep>
  <scstep>
   <time name="dav">    0.20    0.20</time>
   <time name="total">    0.48    0.48</time>
   <energy>
    <i name="e_fr_energy">    -75.60884581 </i>
    <i name="e_wo_entrp">    -75.60884581 </i>
    <i name="e_0_energy">    -75.60884581 </i>
   </energy>
  </scstep>
  <scstep>
   <time name="dav">    0.18    0.19</time>
   <time name="total">    0.47    0.47</time>
   <energy>
    <i name="e_fr_energy">    -75.60887731 </i>
    <i name="e_wo_entrp">    -75.60887731 </i>
    <i name="e_0_energy">    -75.60887731 </i>
   </energy>
  </scstep>
  <scstep>
   <time name="dav">    0.19    0.19</time>
   <time name="total">    0.47    0.48</time>
   <energy>
    <i name="e_fr_energy">    -75.60889089 </i>
    <i name="e_wo_entrp">    -75.60889089 </i>
    <i name="e_0_energy">    -75.60889089 </i>
   </energy>
  </scstep>
  <scstep>
   <time name="dav">    0.21    0.21</time>
   <time name="total">    0.49    0.50</time>
   <energy>
    <i name="e_fr_energy">    -75.60889484 </i>
    <i name="e_wo_entrp">    -75.60889484 </i>
    <i name="e_0_energy">    -75.60889484 </i>
   </energy>
  </scstep>
  <scstep>
   <time name="dav">    0.19    0.19</time>
   <time name="total">    0.48    0.48</time>
   <energy>
    <i name="e_fr_energy">    -75.60889636 </i>
    <i name="e_wo_entrp">    -75.60889636 </i>
    <i name="e_0_energy">    -75.60889636 </i>
   </energy>
  </scstep>
  <scstep>
   <time name="dav">    0.23    0.23</time>
   <time name="total">    0.48    0.48</time>
   <energy>
    <i name="alphaZ">      3.48814018 </i>
    <i name="ewald">   1117.49538781 </i>
    <i name="hartreedc">  -1899.61460371 </i>
    <i name="XCdc">     97.93211611 </i>
    <i name="pawpsdc">   2450.63710122 </i>
    <i name="pawaedc">  -2454.87308949 </i>
    <i name="eentropy">     -0.00000000 </i>
    <i name="bandstr">   -348.50360595 </i>
    <i name="atom">    957.82965714 </i>
    <i name="e_fr_energy">    -75.60889669 </i>
    <i name="e_wo_entrp">    -75.60889669 </i>
    <i name="e_0_energy">    -75.60889669 </i>
   </energy>
  </scstep>
  <structure>
   <crystal>
    <varray name="basis" >
     <v>      10.58354422       0.00000000       0.00000000 </v>
     <v>       0.00000000      10.58354422       0.00000000 </v>
     <v>       0.00000000       0.00000000      10.58354422 </v>
    </varray>
    <i name="volume">   1185.47769178 </i>
    <varray name="rec_basis" >
     <v>       0.09448631       0.00000000       0.00000000 </v>
     <v>       0.00000000       0.09448631       0.00000000 </v>
     <v>       0.00000000       0.00000000       0.09448631 </v>
    </varray>
   </crystal>
   <varray name="positions" >
    <v>       0.50177910       0.63127055       0.50315180 </v>
    <v>       0.38306770       0.56816090       0.51054675 </v>
    <v>       0.38598395       0.43747125       0.49539690 </v>
    <v>       0.49993530       0.36689205       0.49434705 </v>
    <v>       0.61447250       0.43380565       0.51234870 </v>
    <v>       0.61487060       0.56558095       0.49745285 </v>
    <v>       0.50306825       0.73654305       0.49562330 </v>
    <v>       0.29345690       0.61453070       0.51186530 </v>
    <v>       0.29485125       0.38450250       0.48815730 </v>
    <v>       0.50627520       0.26738845       0.49331895 </v>
    <v>       0.70513740       0.37452255       0.51805565 </v>
    <v>       0.69710180       0.61933140       0.47973535 </v>
   </varray>
  </structure>
  <varray name="forces" >
   <v>      -1.36552868       0.99635966      -0.14008056 </v>
   <v>       1.91296410      -0.54825326      -0.67068361 </v>
   <v>      -0.64467910      -1.44223276       0.12008812 </v>
   <v>       0.40727555       2.51543125       1.07733558 </v>
   <v>       0.71501297      -1.31873396      -1.18611184 </v>
   <v>      -0.88233008      -0.71825237       0.60120243 </v>
   <v>       0.00741137      -0.74396246       0.11665581 </v>
   <v>      -0.51473080       0.60979760       0.12798849 </v>
   <v>       0.63259941       0.39946511       0.03441866 </v>
   <v>      -0.37922938      -1.27625908      -0.11505854 </v>
   <v>      -1.16393914       1.09500282      -0.11662081 </v>
   <v>       1.27517378       0.43163745       0.15086626 </v>
  </varray>
  <varray name="stress" >
   <v>      -2.91446110       1.26301329      -0.43351943 </v>
   <v>       1.26301329      -1.03342790       0.00832478 </v>
   <v>      -0.43351943       0.00832479      -0.66343109 </v>
  </varray>
  <energy>
   <i name="e_fr_energy">    -75.60889669 </i>
   <i name="e_wo_entrp">    -75.60889669 </i>
   <i name="e_0_energy">    -75.60889669 </i>
  </energy>
  <time name="totalsc">   15.54   15.74</time>
  <eigenvalues>
   <array>
    <dimension dim="1">band</dimension>
    <dimension dim="2">kpoint</dimension>
    <dimension dim="3">spin</dimension>
    <field>eigene</field>
    <field>occ</field>
    <set>
     <set comment="spin 1">
      <set comment="kpoint 1">
       <r>  -20.7040    1.0000 </r>
       <r>  -17.9956    1.0000 </r>
       <r>  -17.9147    1.0000 </r>
       <r>  -14.3693    1.0000 </r>
       <r>  -14.3004    1.0000 </r>
       <r>  -12.4429    1.0000 </r>
       <r>  -10.7761    1.0000 </r>
       <r>  -10.3502    1.0000 </r>
       <r>   -9.8206    1.0000 </r>
       <r>   -9.7525    1.0000 </r>
       <r>   -8.6093    1.0000 </r>
       <r>   -7.8969    1.0000 </r>
       <r>   -7.6175    1.0000 </r>
       <r>   -5.8729    1.0000 </r>
       <r>   -5.8288    1.0000 </r>
       <r>   -1.0535    0.0000 </r>
       <r>   -0.8191    0.0000 </r>
       <r>   -0.4242    0.0000 </r>
       <r>    0.7160    0.0000 </r>
       <r>    0.8161    0.0000 </r>
       <r>    0.8647    0.0000 </r>
       <r>    0.8965    0.0000 </r>
       <r>    0.9858    0.0000 </r>
       <r>    1.4616    0.0000 </r>
      </set>
     </set>
    </set>
   </array>
  </eigenvalues>
  <separator name="orbital magnetization" >
   <v name="MAGDIPOLOUT">      0.00000000      0.00000000      0.00000000</v>
  </separator>
  <dos>
   <i name="efermi">     -5.55239385 </i>
   <total>
    <array>
     <dimension dim="1">gridpoints</dimension>
     <dimension dim="2">spin</dimension>
     <field>energy</field>
     <field>total</field>
     <field>integrated</field>
     <set>
      <set comment="spin 1">
       <r>   -21.8123     0.0000     0.0000 </r>
       <r>   -21.7310     0.0000     0.0000 </r>
       <r>   -21.6497     0.0000     0.0000 </r>
       <r>   -21.5685     0.0000     0.0000 </r>
       <r>   -21.4872     0.0000     0.0000 </r>
       <r>   -21.4059     0.0000     0.0000 </r>
       <r>   -21.3246     0.0000     0.0000 </r>
       <r>   -21.2434     0.0000     0.0000 </r>
       <r>   -21.1621     0.0000     0.0000 </r>
       <r>   -21.0808     0.0000     0.0000 </r>
       <r>   -20.9995     0.0000     0.0000 </r>
       <r>   -20.9183     0.0000     0.0000 </r>
       <r>   -20.8370     0.0021     0.0002 </r>
       <r>   -20.7557     1.7636     0.1435 </r>
       <r>   -20.6744    17.8814     1.5968 </r>
       <r>   -20.5932     4.9398     1.9983 </r>
       <r>   -20.5119     0.0212     2.0000 </r>
       <r>   -20.4306     0.0000     2.0000 </r>
       <r>   -20.3493     0.0000     2.0000 </r>
       <r>   -20.2681     0.0000     2.0000 </r>
       <r>   -20.1868     0.0000     2.0000 </r>
       <r>   -20.1055     0.0000     2.0000 </r>
       <r>   -20.0243     0.0000     2.0000 </r>
       <r>   -19.9430     0.0000     2.0000 </r>
       <r>   -19.8617     0.0000     2.0000 </r>
       <r>   -19.7804     0.0000     2.0000 </r>
       <r>   -19.6992     0.0000     2.0000 </r>
       <r>   -19.6179     0.0000     2.0000 </r>
       <r>   -19.5366     0.0000     2.0000 </r>
       <r>   -19.4553     0.0000     2.0000 </r>
       <r>   -19.3741     0.0000     2.0000 </r>
       <r>   -19.2928     0.0000     2.0000 </r>
       <r>   -19.2115     0.0000     2.0000 </r>
       <r>   -19.1302     0.0000     2.0000 </r>
       <r>   -19.0490     0.0000     2.0000 </r>
       <r>   -18.9677     0.0000     2.0000 </r>
       <r>   -18.8864     0.0000     2.0000 </r>
       <r>   -18.8051     0.0000     2.0000 </r>
       <r>   -18.7239     0.0000     2.0000 </r>
       <r>   -18.6426     0.0000     2.0000 </r>
       <r>   -18.5613     0.0000     2.0000 </r>
       <r>   -18.4800     0.0000     2.0000 </r>
       <r>   -18.3988     0.0000     2.0000 </r>
       <r>   -18.3175     0.0000     2.0000 </r>
       <r>   -18.2362     0.0000     2.0000 </r>
       <r>   -18.1549     0.0001     2.0000 </r>
       <r>   -18.0737     0.3356     2.0273 </r>
       <r>   -17.9924    13.2076     3.1007 </r>
       <r>   -17.9111    24.1611     5.0644 </r>
       <r>   -17.8299    11.3106     5.9836 </r>
       <r>   -17.7486     0.2013     6.0000 </r>
       <r>   -17.6673     0.0000     6.0000 </r>
       <r>   -17.5860     0.0000     6.0000 </r>
       <r>   -17.5048     0.0000     6.0000 </r>
       <r>   -17.4235     0.0000     6.0000 </r>
       <r>   -17.3422     0.0000     6.0000 </r>
       <r>   -17.2609     0.0000     6.0000 </r>
       <r>   -17.1797     0.0000     6.0000 </r>
       <r>   -17.0984     0.0000     6.0000 </r>
       <r>   -17.0171     0.0000     6.0000 </r>
       <r>   -16.9358     0.0000     6.0000 </r>
       <r>   -16.8546     0.0000     6.0000 </r>
       <r>   -16.7733     0.0000     6.0000 </r>
       <r>   -16.6920     0.0000     6.0000 </r>
       <r>   -16.6107     0.0000     6.0000 </r>
       <r>   -16.5295     0.0000     6.0000 </r>
       <r>   -16.4482     0.0000     6.0000 </r>
       <r>   -16.3669     0.0000     6.0000 </r>
       <r>   -16.2856     0.0000     6.0000 </r>
       <r>   -16.2044     0.0000     6.0000 </r>
       <r>   -16.1231     0.0000     6.0000 </r>
       <r>   -16.0418     0.0000     6.0000 </r>
       <r>   -15.9606     0.0000     6.0000 </r>
       <r>   -15.8793     0.0000     6.0000 </r>
       <r>   -15.7980     0.0000     6.0000 </r>
       <r>   -15.7167     0.0000     6.0000 </r>
       <r>   -15.6355     0.0000     6.0000 </r>
       <r>   -15.5542     0.0000     6.0000 </r>
       <r>   -15.4729     0.0000     6.0000 </r>
       <r>   -15.3916     0.0000     6.0000 </r>
       <r>   -15.3104     0.0000     6.0000 </r>
       <r>   -15.2291     0.0000     6.0000 </r>
       <r>   -15.1478     0.0000     6.0000 </r>
       <r>   -15.0665     0.0000     6.0000 </r>
       <r>   -14.9853     0.0000     6.0000 </r>
       <r>   -14.9040     0.0000     6.0000 </r>
       <r>   -14.8227     0.0000     6.0000 </r>
       <r>   -14.7414     0.0000     6.0000 </r>
       <r>   -14.6602     0.0000     6.0000 </r>
       <r>   -14.5789     0.0000     6.0000 </r>
       <r>   -14.4976     0.0035     6.0003 </r>
       <r>   -14.4163     2.2610     6.1840 </r>
       <r>   -14.3351    22.2692     7.9940 </r>
       <r>   -14.2538    22.3678     9.8119 </r>
       <r>   -14.1725     2.3110     9.9997 </r>
       <r>   -14.0912     0.0037    10.0000 </r>
       <r>   -14.0100     0.0000    10.0000 </r>
       <r>   -13.9287     0.0000    10.0000 </r>
       <r>   -13.8474     0.0000    10.0000 </r>
       <r>   -13.7662     0.0000    10.0000 </r>
       <r>   -13.6849     0.0000    10.0000 </r>
       <r>   -13.6036     0.0000    10.0000 </r>
       <r>   -13.5223     0.0000    10.0000 </r>
       <r>   -13.4411     0.0000    10.0000 </r>
       <r>   -13.3598     0.0000    10.0000 </r>
       <r>   -13.2785     0.0000    10.0000 </r>
       <r>   -13.1972     0.0000    10.0000 </r>
       <r>   -13.1160     0.0000    10.0000 </r>
       <r>   -13.0347     0.0000    10.0000 </r>
       <r>   -12.9534     0.0000    10.0000 </r>
       <r>   -12.8721     0.0000    10.0000 </r>
       <r>   -12.7909     0.0000    10.0000 </r>
       <r>   -12.7096     0.0000    10.0000 </r>
       <r>   -12.6283     0.0000    10.0000 </r>
       <r>   -12.5470     0.0397    10.0032 </r>
       <r>   -12.4658     6.3328    10.5179 </r>
       <r>   -12.3845    17.0238    11.9015 </r>
       <r>   -12.3032     1.2109    11.9999 </r>
       <r>   -12.2219     0.0010    12.0000 </r>
       <r>   -12.1407     0.0000    12.0000 </r>
       <r>   -12.0594     0.0000    12.0000 </r>
       <r>   -11.9781     0.0000    12.0000 </r>
       <r>   -11.8968     0.0000    12.0000 </r>
       <r>   -11.8156     0.0000    12.0000 </r>
       <r>   -11.7343     0.0000    12.0000 </r>
       <r>   -11.6530     0.0000    12.0000 </r>
       <r>   -11.5718     0.0000    12.0000 </r>
       <r>   -11.4905     0.0000    12.0000 </r>
       <r>   -11.4092     0.0000    12.0000 </r>
       <r>   -11.3279     0.0000    12.0000 </r>
       <r>   -11.2467     0.0000    12.0000 </r>
       <r>   -11.1654     0.0000    12.0000 </r>
       <r>   -11.0841     0.0000    12.0000 </r>
       <r>   -11.0028     0.0000    12.0000 </r>
       <r>   -10.9216     0.0005    12.0000 </r>
       <r>   -10.8403     0.8543    12.0695 </r>
       <r>   -10.7590    16.0166    13.3712 </r>
       <r>   -10.6777     7.6703    13.9946 </r>
       <r>   -10.5965     0.0664    14.0000 </r>
       <r>   -10.5152     0.0000    14.0000 </r>
       <r>   -10.4339     0.2204    14.0179 </r>
       <r>   -10.3526    11.4114    14.9454 </r>
       <r>   -10.2714    12.6597    15.9743 </r>
       <r>   -10.1901     0.3165    16.0000 </r>
       <r>   -10.1088     0.0001    16.0000 </r>
       <r>   -10.0275     0.0000    16.0000 </r>
       <r>    -9.9463     0.0046    16.0004 </r>
       <r>    -9.8650     2.5833    16.2103 </r>
       <r>    -9.7837    23.0094    18.0804 </r>
       <r>    -9.7024    21.6824    19.8426 </r>
       <r>    -9.6212     1.9340    19.9998 </r>
       <r>    -9.5399     0.0025    20.0000 </r>
       <r>    -9.4586     0.0000    20.0000 </r>
       <r>    -9.3774     0.0000    20.0000 </r>
       <r>    -9.2961     0.0000    20.0000 </r>
       <r>    -9.2148     0.0000    20.0000 </r>
       <r>    -9.1335     0.0000    20.0000 </r>
       <r>    -9.0523     0.0000    20.0000 </r>
       <r>    -8.9710     0.0000    20.0000 </r>
       <r>    -8.8897     0.0000    20.0000 </r>
       <r>    -8.8084     0.0000    20.0000 </r>
       <r>    -8.7272     0.0106    20.0009 </r>
       <r>    -8.6459     3.6917    20.3009 </r>
       <r>    -8.5646    18.3695    21.7939 </r>
       <r>    -8.4833     2.5317    21.9996 </r>
       <r>    -8.4021     0.0045    22.0000 </r>
       <r>    -8.3208     0.0000    22.0000 </r>
       <r>    -8.2395     0.0000    22.0000 </r>
       <r>    -8.1582     0.0000    22.0000 </r>
       <r>    -8.0770     0.0000    22.0000 </r>
       <r>    -7.9957     0.0641    22.0052 </r>
       <r>    -7.9144     7.5709    22.6205 </r>
       <r>    -7.8331    16.0961    23.9287 </r>
       <r>    -7.7519     0.8783    24.0001 </r>
       <r>    -7.6706     1.6379    24.1332 </r>
       <r>    -7.5893    17.7360    25.5747 </r>
       <r>    -7.5081     5.2087    25.9980 </r>
       <r>    -7.4268     0.0241    26.0000 </r>
       <r>    -7.3455     0.0000    26.0000 </r>
       <r>    -7.2642     0.0000    26.0000 </r>
       <r>    -7.1830     0.0000    26.0000 </r>
       <r>    -7.1017     0.0000    26.0000 </r>
       <r>    -7.0204     0.0000    26.0000 </r>
       <r>    -6.9391     0.0000    26.0000 </r>
       <r>    -6.8579     0.0000    26.0000 </r>
       <r>    -6.7766     0.0000    26.0000 </r>
       <r>    -6.6953     0.0000    26.0000 </r>
       <r>    -6.6140     0.0000    26.0000 </r>
       <r>    -6.5328     0.0000    26.0000 </r>
       <r>    -6.4515     0.0000    26.0000 </r>
       <r>    -6.3702     0.0000    26.0000 </r>
       <r>    -6.2889     0.0000    26.0000 </r>
       <r>    -6.2077     0.0000    26.0000 </r>
       <r>    -6.1264     0.0000    26.0000 </r>
       <r>    -6.0451     0.0000    26.0000 </r>
       <r>    -5.9638     0.1258    26.0102 </r>
       <r>    -5.8826    11.0985    26.9122 </r>
       <r>    -5.8013    32.0866    29.5201 </r>
       <r>    -5.7200     5.8793    29.9979 </r>
       <r>    -5.6387     0.0260    30.0000 </r>
       <r>    -5.5575     0.0000    30.0000 </r>
       <r>    -5.4762     0.0000    30.0000 </r>
       <r>    -5.3949     0.0000    30.0000 </r>
       <r>    -5.3137     0.0000    30.0000 </r>
       <r>    -5.2324     0.0000    30.0000 </r>
       <r>    -5.1511     0.0000    30.0000 </r>
       <r>    -5.0698     0.0000    30.0000 </r>
       <r>    -4.9886     0.0000    30.0000 </r>
       <r>    -4.9073     0.0000    30.0000 </r>
       <r>    -4.8260     0.0000    30.0000 </r>
       <r>    -4.7447     0.0000    30.0000 </r>
       <r>    -4.6635     0.0000    30.0000 </r>
       <r>    -4.5822     0.0000    30.0000 </r>
       <r>    -4.5009     0.0000    30.0000 </r>
       <r>    -4.4196     0.0000    30.0000 </r>
       <r>    -4.3384     0.0000    30.0000 </r>
       <r>    -4.2571     0.0000    30.0000 </r>
       <r>    -4.1758     0.0000    30.0000 </r>
       <r>    -4.0945     0.0000    30.0000 </r>
       <r>    -4.0133     0.0000    30.0000 </r>
       <r>    -3.9320     0.0000    30.0000 </r>
       <r>    -3.8507     0.0000    30.0000 </r>
       <r>    -3.7694     0.0000    30.0000 </r>
       <r>    -3.6882     0.0000    30.0000 </r>
       <r>    -3.6069     0.0000    30.0000 </r>
       <r>    -3.5256     0.0000    30.0000 </r>
       <r>    -3.4443     0.0000    30.0000 </r>
       <r>    -3.3631     0.0000    30.0000 </r>
       <r>    -3.2818     0.0000    30.0000 </r>
       <r>    -3.2005     0.0000    30.0000 </r>
       <r>    -3.1193     0.0000    30.0000 </r>
       <r>    -3.0380     0.0000    30.0000 </r>
       <r>    -2.9567     0.0000    30.0000 </r>
       <r>    -2.8754     0.0000    30.0000 </r>
       <r>    -2.7942     0.0000    30.0000 </r>
       <r>    -2.7129     0.0000    30.0000 </r>
       <r>    -2.6316     0.0000    30.0000 </r>
       <r>    -2.5503     0.0000    30.0000 </r>
       <r>    -2.4691     0.0000    30.0000 </r>
       <r>    -2.3878     0.0000    30.0000 </r>
       <r>    -2.3065     0.0000    30.0000 </r>
       <r>    -2.2252     0.0000    30.0000 </r>
       <r>    -2.1440     0.0000    30.0000 </r>
       <r>    -2.0627     0.0000    30.0000 </r>
       <r>    -1.9814     0.0000    30.0000 </r>
       <r>    -1.9001     0.0000    30.0000 </r>
       <r>    -1.8189     0.0000    30.0000 </r>
       <r>    -1.7376     0.0000    30.0000 </r>
       <r>    -1.6563     0.0000    30.0000 </r>
       <r>    -1.5750     0.0000    30.0000 </r>
       <r>    -1.4938     0.0000    30.0000 </r>
       <r>    -1.4125     0.0000    30.0000 </r>
       <r>    -1.3312     0.0000    30.0000 </r>
       <r>    -1.2499     0.0000    30.0000 </r>
       <r>    -1.1687     0.0139    30.0011 </r>
       <r>    -1.0874     4.1448    30.3380 </r>
       <r>    -1.0061    18.2342    31.8200 </r>
       <r>    -0.9249     2.2460    32.0025 </r>
       <r>    -0.8436     5.9838    32.4888 </r>
       <r>    -0.7623    17.2629    33.8919 </r>
       <r>    -0.6810     1.3294    33.9999 </r>
       <r>    -0.5998     0.0012    34.0000 </r>
       <r>    -0.5185     0.0939    34.0076 </r>
       <r>    -0.4372     8.6669    34.7120 </r>
       <r>    -0.3559    15.1872    35.9463 </r>
       <r>    -0.2747     0.6598    36.0000 </r>
       <r>    -0.1934     0.0003    36.0000 </r>
       <r>    -0.1121     0.0000    36.0000 </r>
       <r>    -0.0308     0.0000    36.0000 </r>
       <r>     0.0504     0.0000    36.0000 </r>
       <r>     0.1317     0.0000    36.0000 </r>
       <r>     0.2130     0.0000    36.0000 </r>
       <r>     0.2943     0.0000    36.0000 </r>
       <r>     0.3755     0.0000    36.0000 </r>
       <r>     0.4568     0.0000    36.0000 </r>
       <r>     0.5381     0.0000    36.0000 </r>
       <r>     0.6194     0.0768    36.0062 </r>
       <r>     0.7006     8.0913    36.6639 </r>
       <r>     0.7819    20.0219    38.2911 </r>
       <r>     0.8632    34.9158    41.1289 </r>
       <r>     0.9444    35.8593    44.0433 </r>
       <r>     1.0257    20.8931    45.7414 </r>
       <r>     1.1070     3.1748    45.9994 </r>
       <r>     1.1883     0.0075    46.0000 </r>
       <r>     1.2695     0.0000    46.0000 </r>
       <r>     1.3508     0.0212    46.0017 </r>
       <r>     1.4321     4.9398    46.4032 </r>
       <r>     1.5134    17.8814    47.8565 </r>
       <r>     1.5946     1.7636    47.9998 </r>
       <r>     1.6759     0.0021    48.0000 </r>
       <r>     1.7572     0.0000    48.0000 </r>
       <r>     1.8385     0.0000    48.0000 </r>
       <r>     1.9197     0.0000    48.0000 </r>
       <r>     2.0010     0.0000    48.0000 </r>
       <r>     2.0823     0.0000    48.0000 </r>
       <r>     2.1636     0.0000    48.0000 </r>
       <r>     2.2448     0.0000    48.0000 </r>
       <r>     2.3261     0.0000    48.0000 </r>
       <r>     2.4074     0.0000    48.0000 </r>
       <r>     2.4887     0.0000    48.0000 </r>
       <r>     2.5699     0.0000    48.0000 </r>
      </set>
     </set>
    </array>
   </total>
  </dos>
 </calculation>
 <structure name="finalpos" >
  <crystal>
   <varray name="basis" >
    <v>      10.58354422       0.00000000       0.00000000 </v>
    <v>       0.00000000      10.58354422       0.00000000 </v>
    <v>       0.00000000       0.00000000      10.58354422 </v>
   </varray>
   <i name="volume">   1185.47769178 </i>
   <varray name="rec_basis" >
    <v>       0.09448631       0.00000000       0.00000000 </v>
    <v>       0.00000000       0.09448631       0.00000000 </v>
    <v>       0.00000000       0.00000000       0.09448631 </v>
   </varray>
  </crystal>
  <varray name="positions" >
   <v>       0.50177910       0.63127055       0.50315180 </v>
   <v>       0.38306770       0.56816090       0.51054675 </v>
   <v>       0.38598395       0.43747125       0.49539690 </v>
   <v>       0.49993530       0.36689205       0.49434705 </v>
   <v>       0.61447250       0.43380565       0.51234870 </v>
   <v>       0.61487060       0.56558095       0.49745285 </v>
   <v>       0.50306825       0.73654305       0.49562330 </v>
   <v>       0.29345690       0.61453070       0.51186530 </v>
   <v>       0.29485125       0.38450250       0.48815730 </v>
   <v>       0.50627520       0.26738845       0.49331895 </v>
   <v>       0.70513740       0.37452255       0.51805565 </v>
   <v>       0.69710180       0.61933140       0.47973535 </v>
  </varray>
 </structure>
</modeling>
