<?xml version="1.0" encoding="ISO-8859-1"?>
<modeling>
 <generator>
  <i name="program" type="string">vasp </i>
  <i name="version" type="string">6.2.0  </i>
  <i name="subversion" type="string">18Jan21 (build Mar 25 2021 14:28:09) complex                          parallel </i>
  <i name="platform" type="string">LinuxGNU </i>
  <i name="date" type="string">2021 12 20 </i>
  <i name="time" type="string">09:48:32 </i>
 </generator>
 <incar>
  <i type="string" name="SYSTEM">benzene</i>
  <i type="int" name="ISTART">     0</i>
  <i type="string" name="PREC">Accurate</i>
  <i type="string" name="ALGO">Normal</i>
  <i type="int" name="NELM">   200</i>
  <i type="int" name="IBRION">    -1</i>
  <i name="EDIFF">      0.00000100</i>
  <i type="int" name="NSW">     0</i>
  <i name="ENCUT">    600.00000000</i>
  <i type="logical" name="LREAL"> F  </i>
  <i type="int" name="ISMEAR">     0</i>
  <i name="SIGMA">      0.05000000</i>
  <i type="logical" name="LWAVE"> F  </i>
  <i type="logical" name="LCHARG"> T  </i>
  <i type="string" name="GGA">PE</i>
 </incar>
 <primitive_cell>
  <structure name="primitive_cell" >
   <crystal>
    <varray name="basis" >
     <v>      10.58354422       0.00000000       0.00000000 </v>
     <v>       0.00000000      10.58354422       0.00000000 </v>
     <v>       0.00000000       0.00000000      10.58354422 </v>
    </varray>
    <i name="volume">   1185.47769178 </i>
    <varray name="rec_basis" >
     <v>       0.09448631       0.00000000       0.00000000 </v>
     <v>       0.00000000       0.09448631       0.00000000 </v>
     <v>       0.00000000       0.00000000       0.09448631 </v>
    </varray>
   </crystal>
   <varray name="positions" >
    <v>       0.49829140       0.62762500       0.50859700 </v>
    <v>       0.38255240       0.56719705       0.49346195 </v>
    <v>       0.38431560       0.43658910       0.49655760 </v>
    <v>       0.50206350       0.36339255       0.50269430 </v>
    <v>       0.61659855       0.43171420       0.49634140 </v>
    <v>       0.61571775       0.56185535       0.50277070 </v>
    <v>       0.49856430       0.73798640       0.50531155 </v>
    <v>       0.29714975       0.62464690       0.49761365 </v>
    <v>       0.29426505       0.38914510       0.49542405 </v>
    <v>       0.50928140       0.26058345       0.51336680 </v>
    <v>       0.70608380       0.37674765       0.49120000 </v>
    <v>       0.69511655       0.62251735       0.49666115 </v>
   </varray>
  </structure>
  <varray name="primitive_index" >
   <v type="int" >        1 </v>
   <v type="int" >        2 </v>
   <v type="int" >        3 </v>
   <v type="int" >        4 </v>
   <v type="int" >        5 </v>
   <v type="int" >        6 </v>
   <v type="int" >        7 </v>
   <v type="int" >        8 </v>
   <v type="int" >        9 </v>
   <v type="int" >       10 </v>
   <v type="int" >       11 </v>
   <v type="int" >       12 </v>
  </varray>
 </primitive_cell>
 <kpoints>
  <generation param="Gamma">
   <v type="int" name="divisions">       1        1        1 </v>
   <v name="usershift">      0.00000000       0.00000000       0.00000000 </v>
   <v name="genvec1">      1.00000000       0.00000000       0.00000000 </v>
   <v name="genvec2">      0.00000000       1.00000000       0.00000000 </v>
   <v name="genvec3">      0.00000000       0.00000000       1.00000000 </v>
   <v name="shift">      0.00000000       0.00000000       0.00000000 </v>
  </generation>
  <varray name="kpointlist" >
   <v>       0.00000000       0.00000000       0.00000000 </v>
  </varray>
  <varray name="weights" >
   <v>       1.00000000 </v>
  </varray>
 </kpoints>
 <parameters>
  <separator name="general" >
   <i type="string" name="SYSTEM">benzene</i>
   <i type="logical" name="LCOMPAT"> F  </i>
  </separator>
  <separator name="electronic" >
   <i type="string" name="PREC">accura</i>
   <i name="ENMAX">    600.00000000</i>
   <i name="ENAUG">    644.87300000</i>
   <i name="EDIFF">      0.00000100</i>
   <i type="int" name="IALGO">    38</i>
   <i type="int" name="IWAVPR">    10</i>
   <i type="int" name="NBANDS">    24</i>
   <i type="int" name="NBANDSLOW">    -1</i>
   <i type="int" name="NBANDSHIGH">    -1</i>
   <i name="NELECT">     30.00000000</i>
   <i type="int" name="TURBO">     0</i>
   <i type="int" name="IRESTART">     0</i>
   <i type="int" name="NREBOOT">     0</i>
   <i type="int" name="NMIN">     0</i>
   <i name="EREF">      0.00000000</i>
   <separator name="electronic smearing" >
    <i type="int" name="ISMEAR">     0</i>
    <i name="SIGMA">      0.05000000</i>
    <i name="KSPACING">      0.50000000</i>
    <i type="logical" name="KGAMMA"> T  </i>
    <i type="logical" name="KBLOWUP"> T  </i>
   </separator>
   <separator name="electronic projectors" >
    <i type="logical" name="LREAL"> F  </i>
    <v name="ROPT">      0.00000000      0.00000000</v>
    <i type="int" name="LMAXPAW">  -100</i>
    <i type="int" name="LMAXMIX">     2</i>
    <i type="logical" name="NLSPLINE"> F  </i>
   </separator>
   <separator name="electronic startup" >
    <i type="int" name="ISTART">     0</i>
    <i type="int" name="ICHARG">     2</i>
    <i type="int" name="INIWAV">     1</i>
   </separator>
   <separator name="electronic spin" >
    <i type="int" name="ISPIN">     1</i>
    <i type="logical" name="LNONCOLLINEAR"> F  </i>
    <v name="MAGMOM">      1.00000000      1.00000000      1.00000000      1.00000000      1.00000000      1.00000000      1.00000000      1.00000000      1.00000000      1.00000000      1.00000000      1.00000000</v>
    <i name="NUPDOWN">     -1.00000000</i>
    <i type="logical" name="LSORBIT"> F  </i>
    <v name="SAXIS">      0.00000000      0.00000000      1.00000000</v>
    <i type="logical" name="LSPIRAL"> F  </i>
    <v name="QSPIRAL">      0.00000000      0.00000000      0.00000000</v>
    <i type="logical" name="LZEROZ"> F  </i>
   </separator>
   <separator name="electronic exchange-correlation" >
    <i type="logical" name="LASPH"> F  </i>
    <i type="logical" name="LMETAGGA"> F  </i>
   </separator>
   <separator name="electronic convergence" >
    <i type="int" name="NELM">   200</i>
    <i type="int" name="NELMDL">    -5</i>
    <i type="int" name="NELMIN">     2</i>
    <i name="ENINI">    600.00000000</i>
    <separator name="electronic convergence detail" >
     <i type="logical" name="LDIAG"> T  </i>
     <i type="logical" name="LSUBROT"> F  </i>
     <i name="WEIMIN">      0.00000000</i>
     <i name="EBREAK">      0.00000001</i>
     <i name="DEPER">      0.30000000</i>
     <i type="int" name="NRMM">     4</i>
     <i name="TIME">      0.40000000</i>
    </separator>
   </separator>
   <separator name="electronic mixer" >
    <i name="AMIX">      0.40000000</i>
    <i name="BMIX">      1.00000000</i>
    <i name="AMIN">      0.10000000</i>
    <i name="AMIX_MAG">      1.60000000</i>
    <i name="BMIX_MAG">      1.00000000</i>
    <separator name="electronic mixer details" >
     <i type="int" name="IMIX">     4</i>
     <i type="logical" name="MIXFIRST"> F  </i>
     <i type="int" name="MAXMIX">   -45</i>
     <i name="WC">    100.00000000</i>
     <i type="int" name="INIMIX">     1</i>
     <i type="int" name="MIXPRE">     1</i>
     <i type="int" name="MREMOVE">     5</i>
    </separator>
   </separator>
   <separator name="electronic dipolcorrection" >
    <i type="logical" name="LDIPOL"> F  </i>
    <i type="logical" name="LMONO"> F  </i>
    <i type="int" name="IDIPOL">     0</i>
    <i name="EPSILON">      1.00000000</i>
    <v name="DIPOL">   -100.00000000   -100.00000000   -100.00000000</v>
    <i name="EFIELD">      0.00000000</i>
   </separator>
  </separator>
  <separator name="grids" >
   <i type="int" name="NGX">    90</i>
   <i type="int" name="NGY">    90</i>
   <i type="int" name="NGZ">    90</i>
   <i type="int" name="NGXF">   180</i>
   <i type="int" name="NGYF">   180</i>
   <i type="int" name="NGZF">   180</i>
   <i type="logical" name="ADDGRID"> F  </i>
  </separator>
  <separator name="ionic" >
   <i type="int" name="NSW">     0</i>
   <i type="int" name="IBRION">    -1</i>
   <i type="int" name="MDALGO">     0</i>
   <i type="int" name="ISIF">     2</i>
   <i name="PSTRESS">      0.00000000</i>
   <i name="EDIFFG">      0.00001000</i>
   <i type="int" name="NFREE">     0</i>
   <i name="POTIM">      0.50000000</i>
   <i name="SMASS">     -3.00000000</i>
   <i name="SCALEE">      1.00000000</i>
  </separator>
  <separator name="ionic md" >
   <i name="TEBEG">      0.00010000</i>
   <i name="TEEND">      0.00010000</i>
   <i type="int" name="NBLOCK">     1</i>
   <i type="int" name="KBLOCK">     1</i>
   <i type="int" name="NPACO">   256</i>
   <i name="APACO">     16.00000000</i>
  </separator>
  <separator name="symmetry" >
   <i type="int" name="ISYM">     2</i>
   <i name="SYMPREC">      0.00001000</i>
  </separator>
  <separator name="dos" >
   <i type="int" name="LORBIT">     0</i>
   <v name="RWIGS">     -1.00000000     -1.00000000</v>
   <i type="int" name="NEDOS">   301</i>
   <i name="EMIN">     10.00000000</i>
   <i name="EMAX">    -10.00000000</i>
   <i name="EFERMI">      0.00000000</i>
  </separator>
  <separator name="writing" >
   <i type="int" name="NWRITE">     2</i>
   <i type="logical" name="LWAVE"> F  </i>
   <i type="logical" name="LDOWNSAMPLE"> F  </i>
   <i type="logical" name="LCHARG"> T  </i>
   <i type="logical" name="LPARD"> F  </i>
   <i type="logical" name="LVTOT"> F  </i>
   <i type="logical" name="LVHAR"> F  </i>
   <i type="logical" name="LELF"> F  </i>
   <i type="logical" name="LOPTICS"> F  </i>
   <v name="STM">      0.00000000      0.00000000      0.00000000      0.00000000      0.00000000      0.00000000      0.00000000</v>
  </separator>
  <separator name="performance" >
   <i type="int" name="NPAR">     4</i>
   <i type="int" name="NSIM">     4</i>
   <i type="int" name="NBLK">    -1</i>
   <i type="logical" name="LPLANE"> T  </i>
   <i type="logical" name="LSCALAPACK"> T  </i>
   <i type="logical" name="LSCAAWARE"> F  </i>
   <i type="logical" name="LSCALU"> F  </i>
   <i type="logical" name="LASYNC"> F  </i>
   <i type="logical" name="LORBITALREAL"> F  </i>
  </separator>
  <separator name="miscellaneous" >
   <i type="int" name="IDIOT">     3</i>
   <i type="int" name="PHON_NSTRUCT">    -1</i>
   <i type="logical" name="LMUSIC"> F  </i>
   <v name="POMASS">     12.01100000      1.00000000</v>
   <v name="DARWINR">      0.00000000      0.00000000</v>
   <v name="DARWINV">      1.00000000      1.00000000</v>
   <i type="logical" name="LCORR"> T  </i>
  </separator>
  <i type="logical" name="GGA_COMPAT"> T  </i>
  <i type="logical" name="LBERRY"> F  </i>
  <i type="int" name="ICORELEVEL">     0</i>
  <i type="logical" name="LDAU"> F  </i>
  <i type="int" name="I_CONSTRAINED_M">     0</i>
  <separator name="electronic exchange-correlation" >
   <i type="string" name="GGA">PE</i>
   <i type="int" name="VOSKOWN">     0</i>
   <i type="logical" name="LHFCALC"> F  </i>
   <i type="string" name="PRECFOCK"></i>
   <i type="logical" name="LSYMGRAD"> F  </i>
   <i type="logical" name="LHFONE"> F  </i>
   <i type="logical" name="LRHFCALC"> F  </i>
   <i type="logical" name="LTHOMAS"> F  </i>
   <i type="logical" name="LMODELHF"> F  </i>
   <i type="logical" name="LFOCKACE"> F  </i>
   <i name="ENCUT4O">     -1.00000000</i>
   <i type="int" name="EXXOEP">     0</i>
   <i type="int" name="FOURORBIT">     0</i>
   <i name="AEXX">      0.00000000</i>
   <i name="HFALPHA">      0.00000000</i>
   <i name="MCALPHA">      0.00000000</i>
   <i name="ALDAX">      1.00000000</i>
   <i name="AGGAX">      1.00000000</i>
   <i name="ALDAC">      1.00000000</i>
   <i name="AGGAC">      1.00000000</i>
   <i type="int" name="NKREDX">     1</i>
   <i type="int" name="NKREDY">     1</i>
   <i type="int" name="NKREDZ">     1</i>
   <i type="logical" name="SHIFTRED"> F  </i>
   <i type="logical" name="ODDONLY"> F  </i>
   <i type="logical" name="EVENONLY"> F  </i>
   <i type="int" name="LMAXFOCK">     0</i>
   <i type="int" name="NMAXFOCKAE">     0</i>
   <i type="logical" name="LFOCKAEDFT"> F  </i>
   <i name="HFSCREEN">      0.00000000</i>
   <i name="HFSCREENC">      0.00000000</i>
   <i type="int" name="NBANDSGWLOW">     0</i>
  </separator>
  <separator name="vdW DFT" >
   <i type="logical" name="LUSE_VDW"> F  </i>
   <i name="Zab_VDW">     -0.84910000</i>
   <i name="PARAM1">      0.12340000</i>
   <i name="PARAM2">      1.00000000</i>
   <i name="PARAM3">      0.00000000</i>
  </separator>
  <separator name="model GW" >
   <i type="int" name="MODEL_GW">     0</i>
   <i name="MODEL_EPS0">     59.27388459</i>
   <i name="MODEL_ALPHA">      1.00000000</i>
  </separator>
  <separator name="linear response parameters" >
   <i type="logical" name="LEPSILON"> F  </i>
   <i type="logical" name="LRPA"> F  </i>
   <i type="logical" name="LNABLA"> F  </i>
   <i type="logical" name="LVEL"> F  </i>
   <i type="int" name="KINTER">     0</i>
   <i name="CSHIFT">      0.10000000</i>
   <i name="OMEGAMAX">     -1.00000000</i>
   <i name="DEG_THRESHOLD">      0.00200000</i>
   <i name="RTIME">     -0.10000000</i>
   <i name="WPLASMAI">      0.00000000</i>
   <v name="DFIELD">      0.00000000      0.00000000      0.00000000</v>
   <v name="WPLASMA">      0.00000000      0.00000000      0.00000000      0.00000000      0.00000000      0.00000000      0.00000000      0.00000000      0.00000000</v>
  </separator>
  <separator name="orbital magnetization" >
   <i type="logical" name="NUCIND"> F  </i>
   <v name="MAGPOS">      0.00000000      0.00000000      0.00000000</v>
   <i type="logical" name="LNICSALL"> T  </i>
   <i type="logical" name="ORBITALMAG"> F  </i>
   <i type="logical" name="LMAGBLOCH"> F  </i>
   <i type="logical" name="LCHIMAG"> F  </i>
   <i type="logical" name="LGAUGE"> T  </i>
   <i type="int" name="MAGATOM">     0</i>
   <v name="MAGDIPOL">      0.00000000      0.00000000      0.00000000</v>
   <v name="AVECCONST">      0.00000000      0.00000000      0.00000000</v>
  </separator>
  <separator name="response functions" >
   <i type="logical" name="LFINITE_TEMPERATURE"> F  </i>
   <i type="logical" name="LADDER"> F  </i>
   <i type="logical" name="LRPAFORCE"> F  </i>
   <i type="logical" name="LFXC"> F  </i>
   <i type="logical" name="LHARTREE"> T  </i>
   <i type="int" name="IBSE">     0</i>
   <v type="int" name="KPOINT">    -1     0     0     0</v>
   <i type="logical" name="LTCTC"> F  </i>
   <i type="logical" name="LTCTE"> F  </i>
   <i type="logical" name="LTETE"> F  </i>
   <i type="logical" name="LTRIPLET"> F  </i>
   <i type="logical" name="LFXCEPS"> F  </i>
   <i type="logical" name="LFXHEG"> F  </i>
   <i type="int" name="NATURALO">     2</i>
   <i type="logical" name="LHOLEGF"> F  </i>
   <i type="logical" name="L2ORDER"> F  </i>
   <i type="logical" name="LDMP1"> F  </i>
   <i type="logical" name="LMP2LT"> F  </i>
   <i type="logical" name="LSMP2LT"> F  </i>
   <i type="logical" name="LGWLF"> F  </i>
   <i name="ENCUTGW">     -2.00000000</i>
   <i name="ENCUTGWSOFT">     -2.00000000</i>
   <i name="ENCUTLF">     -1.00000000</i>
   <i type="logical" name="LESF_SPLINES"> F  </i>
   <i type="int" name="LMAXMP2">    -1</i>
   <i name="SCISSOR">      0.00000000</i>
   <i type="int" name="NOMEGA">     0</i>
   <i type="int" name="NOMEGAR">     0</i>
   <i type="int" name="NBANDSGW">    -1</i>
   <i type="int" name="NBANDSO">    -1</i>
   <i type="int" name="NBANDSV">    -1</i>
   <i type="int" name="NELM">   200</i>
   <i type="int" name="NELMHF">     1</i>
   <i type="int" name="DIM">     3</i>
   <i type="int" name="IESPILON">     4</i>
   <i type="int" name="ANTIRES">     0</i>
   <i name="OMEGAMAX">    -30.00000000</i>
   <i name="OMEGAMIN">    -30.00000000</i>
   <i name="OMEGATL">   -200.00000000</i>
   <i type="int" name="OMEGAGRID">     0</i>
   <i name="CSHIFT">     -0.10000000</i>
   <i type="logical" name="LSELFENERGY"> F  </i>
   <i type="logical" name="LSPECTRAL"> F  </i>
   <i type="logical" name="LSPECTRALGW"> F  </i>
   <i type="logical" name="LSINGLES"> F  </i>
   <i type="logical" name="LFERMIGW"> F  </i>
   <i type="logical" name="ODDONLYGW"> F  </i>
   <i type="logical" name="EVENONLYGW"> F  </i>
   <i type="int" name="NKREDLFX">     1</i>
   <i type="int" name="NKREDLFY">     1</i>
   <i type="int" name="NKREDLFZ">     1</i>
   <i type="int" name="MAXMEM">  2800</i>
   <i type="int" name="TELESCOPE">     0</i>
   <i type="int" name="NTAUPAR">    -1</i>
   <i type="int" name="NOMEGAPAR">    -1</i>
   <i name="DAMP_NEWTON">      0.80000001</i>
   <i name="LAMBDA">      1.00000000</i>
  </separator>
  <separator name="External order field" >
   <i name="OFIELD_KAPPA">      0.00000000</i>
   <v name="OFIELD_K">      0.00000000      0.00000000      0.00000000</v>
   <i name="OFIELD_Q6_NEAR">      0.00000000</i>
   <i name="OFIELD_Q6_FAR">      0.00000000</i>
   <i name="OFIELD_A">      0.00000000</i>
  </separator>
 </parameters>
 <atominfo>
  <atoms>      12 </atoms>
  <types>       2 </types>
  <array name="atoms" >
   <dimension dim="1">ion</dimension>
   <field type="string">element</field>
   <field type="int">atomtype</field>
   <set>
    <rc><c>C </c><c>   1</c></rc>
    <rc><c>C </c><c>   1</c></rc>
    <rc><c>C </c><c>   1</c></rc>
    <rc><c>C </c><c>   1</c></rc>
    <rc><c>C </c><c>   1</c></rc>
    <rc><c>C </c><c>   1</c></rc>
    <rc><c>H </c><c>   2</c></rc>
    <rc><c>H </c><c>   2</c></rc>
    <rc><c>H </c><c>   2</c></rc>
    <rc><c>H </c><c>   2</c></rc>
    <rc><c>H </c><c>   2</c></rc>
    <rc><c>H </c><c>   2</c></rc>
   </set>
  </array>
  <array name="atomtypes" >
   <dimension dim="1">type</dimension>
   <field type="int">atomspertype</field>
   <field type="string">element</field>
   <field>mass</field>
   <field>valence</field>
   <field type="string">pseudopotential</field>
   <set>
    <rc><c>   6</c><c>C </c><c>     12.01100000</c><c>      4.00000000</c><c>  PAW_PBE C 08Apr2002                   </c></rc>
    <rc><c>   6</c><c>H </c><c>      1.00000000</c><c>      1.00000000</c><c>  PAW_PBE H 15Jun2001                   </c></rc>
   </set>
  </array>
 </atominfo>
 <structure name="initialpos" >
  <crystal>
   <varray name="basis" >
    <v>      10.58354422       0.00000000       0.00000000 </v>
    <v>       0.00000000      10.58354422       0.00000000 </v>
    <v>       0.00000000       0.00000000      10.58354422 </v>
   </varray>
   <i name="volume">   1185.47769178 </i>
   <varray name="rec_basis" >
    <v>       0.09448631       0.00000000       0.00000000 </v>
    <v>       0.00000000       0.09448631       0.00000000 </v>
    <v>       0.00000000       0.00000000       0.09448631 </v>
   </varray>
  </crystal>
  <varray name="positions" >
   <v>       0.49829140       0.62762500       0.50859700 </v>
   <v>       0.38255240       0.56719705       0.49346195 </v>
   <v>       0.38431560       0.43658910       0.49655760 </v>
   <v>       0.50206350       0.36339255       0.50269430 </v>
   <v>       0.61659855       0.43171420       0.49634140 </v>
   <v>       0.61571775       0.56185535       0.50277070 </v>
   <v>       0.49856430       0.73798640       0.50531155 </v>
   <v>       0.29714975       0.62464690       0.49761365 </v>
   <v>       0.29426505       0.38914510       0.49542405 </v>
   <v>       0.50928140       0.26058345       0.51336680 </v>
   <v>       0.70608380       0.37674765       0.49120000 </v>
   <v>       0.69511655       0.62251735       0.49666115 </v>
  </varray>
 </structure>
 <calculation>
  <scstep>
   <time name="dav">    0.21    0.21</time>
   <time name="total">    0.47    0.47</time>
   <energy>
    <i name="alphaZ">      3.48814018 </i>
    <i name="ewald">   1108.84971967 </i>
    <i name="hartreedc">  -1748.16856738 </i>
    <i name="XCdc">     91.01675625 </i>
    <i name="pawpsdc">    663.93644290 </i>
    <i name="pawaedc">   -667.40614445 </i>
    <i name="eentropy">     -0.00000000 </i>
    <i name="bandstr">   -196.27860361 </i>
    <i name="atom">    957.82965714 </i>
    <i name="e_fr_energy">    213.26740069 </i>
    <i name="e_wo_entrp">    213.26740069 </i>
    <i name="e_0_energy">    213.26740069 </i>
   </energy>
  </scstep>
  <scstep>
   <time name="dav">    0.25    0.25</time>
   <time name="total">    0.25    0.25</time>
   <energy>
    <i name="e_fr_energy">     -2.43846705 </i>
    <i name="e_wo_entrp">     -2.43846705 </i>
    <i name="e_0_energy">     -2.43846705 </i>
   </energy>
  </scstep>
  <scstep>
   <time name="dav">    0.21    0.21</time>
   <time name="total">    0.21    0.21</time>
   <energy>
    <i name="e_fr_energy">    -77.35907920 </i>
    <i name="e_wo_entrp">    -77.35907920 </i>
    <i name="e_0_energy">    -77.35907920 </i>
   </energy>
  </scstep>
  <scstep>
   <time name="dav">    0.18    0.19</time>
   <time name="total">    0.18    0.19</time>
   <energy>
    <i name="e_fr_energy">    -83.29139281 </i>
    <i name="e_wo_entrp">    -83.29139281 </i>
    <i name="e_0_energy">    -83.29139281 </i>
   </energy>
  </scstep>
  <scstep>
   <time name="dav">    0.23    0.23</time>
   <time name="total">    0.27    0.27</time>
   <energy>
    <i name="e_fr_energy">    -83.41197841 </i>
    <i name="e_wo_entrp">    -83.41197841 </i>
    <i name="e_0_energy">    -83.41197841 </i>
   </energy>
  </scstep>
  <scstep>
   <time name="dav">    0.23    0.24</time>
   <time name="total">    0.53    0.53</time>
   <energy>
    <i name="e_fr_energy">    -77.44850247 </i>
    <i name="e_wo_entrp">    -77.44850247 </i>
    <i name="e_0_energy">    -77.44850247 </i>
   </energy>
  </scstep>
  <scstep>
   <time name="dav">    0.25    0.25</time>
   <time name="total">    0.54    0.55</time>
   <energy>
    <i name="e_fr_energy">    -75.74443759 </i>
    <i name="e_wo_entrp">    -75.74443759 </i>
    <i name="e_0_energy">    -75.74443759 </i>
   </energy>
  </scstep>
  <scstep>
   <time name="dav">    0.25    0.25</time>
   <time name="total">    0.54    0.54</time>
   <energy>
    <i name="e_fr_energy">    -75.58381335 </i>
    <i name="e_wo_entrp">    -75.58381335 </i>
    <i name="e_0_energy">    -75.58381335 </i>
   </energy>
  </scstep>
  <scstep>
   <time name="dav">    0.20    0.21</time>
   <time name="total">    0.50    0.50</time>
   <energy>
    <i name="e_fr_energy">    -75.54394032 </i>
    <i name="e_wo_entrp">    -75.54394032 </i>
    <i name="e_0_energy">    -75.54394032 </i>
   </energy>
  </scstep>
  <scstep>
   <time name="dav">    0.22    0.23</time>
   <time name="total">    0.51    0.52</time>
   <energy>
    <i name="e_fr_energy">    -75.53874100 </i>
    <i name="e_wo_entrp">    -75.53874100 </i>
    <i name="e_0_energy">    -75.53874100 </i>
   </energy>
  </scstep>
  <scstep>
   <time name="dav">    0.19    0.19</time>
   <time name="total">    0.48    0.49</time>
   <energy>
    <i name="e_fr_energy">    -75.53122464 </i>
    <i name="e_wo_entrp">    -75.53122464 </i>
    <i name="e_0_energy">    -75.53122464 </i>
   </energy>
  </scstep>
  <scstep>
   <time name="dav">    0.20    0.21</time>
   <time name="total">    0.48    0.49</time>
   <energy>
    <i name="e_fr_energy">    -75.53500353 </i>
    <i name="e_wo_entrp">    -75.53500353 </i>
    <i name="e_0_energy">    -75.53500353 </i>
   </energy>
  </scstep>
  <scstep>
   <time name="dav">    0.21    0.21</time>
   <time name="total">    0.48    0.49</time>
   <energy>
    <i name="e_fr_energy">    -75.54562123 </i>
    <i name="e_wo_entrp">    -75.54562123 </i>
    <i name="e_0_energy">    -75.54562123 </i>
   </energy>
  </scstep>
  <scstep>
   <time name="dav">    0.20    0.21</time>
   <time name="total">    0.48    0.48</time>
   <energy>
    <i name="e_fr_energy">    -75.55257911 </i>
    <i name="e_wo_entrp">    -75.55257911 </i>
    <i name="e_0_energy">    -75.55257911 </i>
   </energy>
  </scstep>
  <scstep>
   <time name="dav">    0.20    0.21</time>
   <time name="total">    0.48    0.48</time>
   <energy>
    <i name="e_fr_energy">    -75.55540038 </i>
    <i name="e_wo_entrp">    -75.55540038 </i>
    <i name="e_0_energy">    -75.55540038 </i>
   </energy>
  </scstep>
  <scstep>
   <time name="dav">    0.23    0.23</time>
   <time name="total">    0.50    0.50</time>
   <energy>
    <i name="e_fr_energy">    -75.55621422 </i>
    <i name="e_wo_entrp">    -75.55621422 </i>
    <i name="e_0_energy">    -75.55621422 </i>
   </energy>
  </scstep>
  <scstep>
   <time name="dav">    0.21    0.21</time>
   <time name="total">    0.48    0.48</time>
   <energy>
    <i name="e_fr_energy">    -75.55671718 </i>
    <i name="e_wo_entrp">    -75.55671718 </i>
    <i name="e_0_energy">    -75.55671718 </i>
   </energy>
  </scstep>
  <scstep>
   <time name="dav">    0.22    0.22</time>
   <time name="total">    0.50    0.50</time>
   <energy>
    <i name="e_fr_energy">    -75.55681461 </i>
    <i name="e_wo_entrp">    -75.55681461 </i>
    <i name="e_0_energy">    -75.55681461 </i>
   </energy>
  </scstep>
  <scstep>
   <time name="dav">    0.18    0.19</time>
   <time name="total">    0.47    0.47</time>
   <energy>
    <i name="e_fr_energy">    -75.55685096 </i>
    <i name="e_wo_entrp">    -75.55685096 </i>
    <i name="e_0_energy">    -75.55685096 </i>
   </energy>
  </scstep>
  <scstep>
   <time name="dav">    0.18    0.19</time>
   <time name="total">    0.47    0.47</time>
   <energy>
    <i name="e_fr_energy">    -75.55685950 </i>
    <i name="e_wo_entrp">    -75.55685950 </i>
    <i name="e_0_energy">    -75.55685950 </i>
   </energy>
  </scstep>
  <scstep>
   <time name="dav">    0.18    0.18</time>
   <time name="total">    0.47    0.47</time>
   <energy>
    <i name="e_fr_energy">    -75.55686256 </i>
    <i name="e_wo_entrp">    -75.55686256 </i>
    <i name="e_0_energy">    -75.55686256 </i>
   </energy>
  </scstep>
  <scstep>
   <time name="dav">    0.18    0.18</time>
   <time name="total">    0.43    0.44</time>
   <energy>
    <i name="alphaZ">      3.48814018 </i>
    <i name="ewald">   1108.84971967 </i>
    <i name="hartreedc">  -1891.19750766 </i>
    <i name="XCdc">     97.75087990 </i>
    <i name="pawpsdc">   2425.11543993 </i>
    <i name="pawaedc">  -2429.33817173 </i>
    <i name="eentropy">     -0.00000000 </i>
    <i name="bandstr">   -348.05502079 </i>
    <i name="atom">    957.82965714 </i>
    <i name="e_fr_energy">    -75.55686337 </i>
    <i name="e_wo_entrp">    -75.55686337 </i>
    <i name="e_0_energy">    -75.55686337 </i>
   </energy>
  </scstep>
  <structure>
   <crystal>
    <varray name="basis" >
     <v>      10.58354422       0.00000000       0.00000000 </v>
     <v>       0.00000000      10.58354422       0.00000000 </v>
     <v>       0.00000000       0.00000000      10.58354422 </v>
    </varray>
    <i name="volume">   1185.47769178 </i>
    <varray name="rec_basis" >
     <v>       0.09448631       0.00000000       0.00000000 </v>
     <v>       0.00000000       0.09448631       0.00000000 </v>
     <v>       0.00000000       0.00000000       0.09448631 </v>
    </varray>
   </crystal>
   <varray name="positions" >
    <v>       0.49829140       0.62762500       0.50859700 </v>
    <v>       0.38255240       0.56719705       0.49346195 </v>
    <v>       0.38431560       0.43658910       0.49655760 </v>
    <v>       0.50206350       0.36339255       0.50269430 </v>
    <v>       0.61659855       0.43171420       0.49634140 </v>
    <v>       0.61571775       0.56185535       0.50277070 </v>
    <v>       0.49856430       0.73798640       0.50531155 </v>
    <v>       0.29714975       0.62464690       0.49761365 </v>
    <v>       0.29426505       0.38914510       0.49542405 </v>
    <v>       0.50928140       0.26058345       0.51336680 </v>
    <v>       0.70608380       0.37674765       0.49120000 </v>
    <v>       0.69511655       0.62251735       0.49666115 </v>
   </varray>
  </structure>
  <varray name="forces" >
   <v>       0.91481767       2.09606110      -0.98366049 </v>
   <v>       0.87293268       0.17635994       0.93225009 </v>
   <v>       1.32658935      -1.98006326       0.11463113 </v>
   <v>      -1.03375302       1.92970587      -0.25125921 </v>
   <v>       0.11418636      -1.35210539       0.31468923 </v>
   <v>      -2.11601043       1.03238336      -0.08813471 </v>
   <v>       0.16659404      -1.97936605       0.27320647 </v>
   <v>      -0.18289328      -0.29682220      -0.24910246 </v>
   <v>      -0.33304077      -0.52833231       0.00596905 </v>
   <v>      -0.52890982       0.21244337      -0.23029813 </v>
   <v>      -0.45504751       0.46978975       0.07474662 </v>
   <v>       1.25453474       0.21994583       0.08696240 </v>
  </varray>
  <varray name="stress" >
   <v>      -3.69001084       6.92050632      -0.22770365 </v>
   <v>       6.92050632      -3.62476684       0.38949251 </v>
   <v>      -0.22770365       0.38949251      -0.44508098 </v>
  </varray>
  <energy>
   <i name="e_fr_energy">    -75.55686337 </i>
   <i name="e_wo_entrp">    -75.55686337 </i>
   <i name="e_0_energy">    -75.55686337 </i>
  </energy>
  <time name="totalsc">   14.83   15.02</time>
  <eigenvalues>
   <array>
    <dimension dim="1">band</dimension>
    <dimension dim="2">kpoint</dimension>
    <dimension dim="3">spin</dimension>
    <field>eigene</field>
    <field>occ</field>
    <set>
     <set comment="spin 1">
      <set comment="kpoint 1">
       <r>  -20.6713    1.0000 </r>
       <r>  -18.1745    1.0000 </r>
       <r>  -17.7009    1.0000 </r>
       <r>  -14.4821    1.0000 </r>
       <r>  -14.1877    1.0000 </r>
       <r>  -12.3715    1.0000 </r>
       <r>  -10.7285    1.0000 </r>
       <r>  -10.4289    1.0000 </r>
       <r>   -9.9199    1.0000 </r>
       <r>   -9.5464    1.0000 </r>
       <r>   -8.5567    1.0000 </r>
       <r>   -7.8580    1.0000 </r>
       <r>   -7.6273    1.0000 </r>
       <r>   -6.0845    1.0000 </r>
       <r>   -5.6894    1.0000 </r>
       <r>   -1.0958    0.0000 </r>
       <r>   -0.7829    0.0000 </r>
       <r>   -0.4554    0.0000 </r>
       <r>    0.6786    0.0000 </r>
       <r>    0.7954    0.0000 </r>
       <r>    0.8723    0.0000 </r>
       <r>    0.9007    0.0000 </r>
       <r>    0.9876    0.0000 </r>
       <r>    1.4506    0.0000 </r>
      </set>
     </set>
    </set>
   </array>
  </eigenvalues>
  <separator name="orbital magnetization" >
   <v name="MAGDIPOLOUT">      0.00000000      0.00000000      0.00000000</v>
  </separator>
  <dos>
   <i name="efermi">     -5.38740448 </i>
   <total>
    <array>
     <dimension dim="1">gridpoints</dimension>
     <dimension dim="2">spin</dimension>
     <field>energy</field>
     <field>total</field>
     <field>integrated</field>
     <set>
      <set comment="spin 1">
       <r>   -21.7774     0.0000     0.0000 </r>
       <r>   -21.6963     0.0000     0.0000 </r>
       <r>   -21.6152     0.0000     0.0000 </r>
       <r>   -21.5341     0.0000     0.0000 </r>
       <r>   -21.4529     0.0000     0.0000 </r>
       <r>   -21.3718     0.0000     0.0000 </r>
       <r>   -21.2907     0.0000     0.0000 </r>
       <r>   -21.2096     0.0000     0.0000 </r>
       <r>   -21.1285     0.0000     0.0000 </r>
       <r>   -21.0474     0.0000     0.0000 </r>
       <r>   -20.9663     0.0000     0.0000 </r>
       <r>   -20.8851     0.0000     0.0000 </r>
       <r>   -20.8040     0.0021     0.0002 </r>
       <r>   -20.7229     1.7768     0.1443 </r>
       <r>   -20.6418    17.8956     1.5959 </r>
       <r>   -20.5607     4.9606     1.9982 </r>
       <r>   -20.4796     0.0217     2.0000 </r>
       <r>   -20.3985     0.0000     2.0000 </r>
       <r>   -20.3174     0.0000     2.0000 </r>
       <r>   -20.2362     0.0000     2.0000 </r>
       <r>   -20.1551     0.0000     2.0000 </r>
       <r>   -20.0740     0.0000     2.0000 </r>
       <r>   -19.9929     0.0000     2.0000 </r>
       <r>   -19.9118     0.0000     2.0000 </r>
       <r>   -19.8307     0.0000     2.0000 </r>
       <r>   -19.7496     0.0000     2.0000 </r>
       <r>   -19.6684     0.0000     2.0000 </r>
       <r>   -19.5873     0.0000     2.0000 </r>
       <r>   -19.5062     0.0000     2.0000 </r>
       <r>   -19.4251     0.0000     2.0000 </r>
       <r>   -19.3440     0.0000     2.0000 </r>
       <r>   -19.2629     0.0000     2.0000 </r>
       <r>   -19.1818     0.0000     2.0000 </r>
       <r>   -19.1006     0.0000     2.0000 </r>
       <r>   -19.0195     0.0000     2.0000 </r>
       <r>   -18.9384     0.0000     2.0000 </r>
       <r>   -18.8573     0.0000     2.0000 </r>
       <r>   -18.7762     0.0000     2.0000 </r>
       <r>   -18.6951     0.0000     2.0000 </r>
       <r>   -18.6140     0.0000     2.0000 </r>
       <r>   -18.5329     0.0000     2.0000 </r>
       <r>   -18.4517     0.0000     2.0000 </r>
       <r>   -18.3706     0.0000     2.0000 </r>
       <r>   -18.2895     0.0140     2.0011 </r>
       <r>   -18.2084     4.1449     2.3373 </r>
       <r>   -18.1273    18.2549     3.8181 </r>
       <r>   -18.0462     2.2395     3.9997 </r>
       <r>   -17.9651     0.0035     4.0000 </r>
       <r>   -17.8839     0.0000     4.0000 </r>
       <r>   -17.8028     0.0485     4.0039 </r>
       <r>   -17.7217     6.8011     4.5556 </r>
       <r>   -17.6406    16.7196     5.9118 </r>
       <r>   -17.5595     1.0869     5.9999 </r>
       <r>   -17.4784     0.0008     6.0000 </r>
       <r>   -17.3973     0.0000     6.0000 </r>
       <r>   -17.3162     0.0000     6.0000 </r>
       <r>   -17.2350     0.0000     6.0000 </r>
       <r>   -17.1539     0.0000     6.0000 </r>
       <r>   -17.0728     0.0000     6.0000 </r>
       <r>   -16.9917     0.0000     6.0000 </r>
       <r>   -16.9106     0.0000     6.0000 </r>
       <r>   -16.8295     0.0000     6.0000 </r>
       <r>   -16.7484     0.0000     6.0000 </r>
       <r>   -16.6672     0.0000     6.0000 </r>
       <r>   -16.5861     0.0000     6.0000 </r>
       <r>   -16.5050     0.0000     6.0000 </r>
       <r>   -16.4239     0.0000     6.0000 </r>
       <r>   -16.3428     0.0000     6.0000 </r>
       <r>   -16.2617     0.0000     6.0000 </r>
       <r>   -16.1806     0.0000     6.0000 </r>
       <r>   -16.0995     0.0000     6.0000 </r>
       <r>   -16.0183     0.0000     6.0000 </r>
       <r>   -15.9372     0.0000     6.0000 </r>
       <r>   -15.8561     0.0000     6.0000 </r>
       <r>   -15.7750     0.0000     6.0000 </r>
       <r>   -15.6939     0.0000     6.0000 </r>
       <r>   -15.6128     0.0000     6.0000 </r>
       <r>   -15.5317     0.0000     6.0000 </r>
       <r>   -15.4505     0.0000     6.0000 </r>
       <r>   -15.3694     0.0000     6.0000 </r>
       <r>   -15.2883     0.0000     6.0000 </r>
       <r>   -15.2072     0.0000     6.0000 </r>
       <r>   -15.1261     0.0000     6.0000 </r>
       <r>   -15.0450     0.0000     6.0000 </r>
       <r>   -14.9639     0.0000     6.0000 </r>
       <r>   -14.8827     0.0000     6.0000 </r>
       <r>   -14.8016     0.0000     6.0000 </r>
       <r>   -14.7205     0.0000     6.0000 </r>
       <r>   -14.6394     0.0001     6.0000 </r>
       <r>   -14.5583     0.3833     6.0311 </r>
       <r>   -14.4772    13.3023     7.1101 </r>
       <r>   -14.3961    10.7863     7.9850 </r>
       <r>   -14.3150     0.1887     8.0003 </r>
       <r>   -14.2338     2.3560     8.1914 </r>
       <r>   -14.1527    18.3120     9.6768 </r>
       <r>   -14.0716     3.9722     9.9990 </r>
       <r>   -13.9905     0.0127    10.0000 </r>
       <r>   -13.9094     0.0000    10.0000 </r>
       <r>   -13.8283     0.0000    10.0000 </r>
       <r>   -13.7472     0.0000    10.0000 </r>
       <r>   -13.6660     0.0000    10.0000 </r>
       <r>   -13.5849     0.0000    10.0000 </r>
       <r>   -13.5038     0.0000    10.0000 </r>
       <r>   -13.4227     0.0000    10.0000 </r>
       <r>   -13.3416     0.0000    10.0000 </r>
       <r>   -13.2605     0.0000    10.0000 </r>
       <r>   -13.1794     0.0000    10.0000 </r>
       <r>   -13.0983     0.0000    10.0000 </r>
       <r>   -13.0171     0.0000    10.0000 </r>
       <r>   -12.9360     0.0000    10.0000 </r>
       <r>   -12.8549     0.0000    10.0000 </r>
       <r>   -12.7738     0.0000    10.0000 </r>
       <r>   -12.6927     0.0000    10.0000 </r>
       <r>   -12.6116     0.0000    10.0000 </r>
       <r>   -12.5305     0.0001    10.0000 </r>
       <r>   -12.4493     0.3417    10.0277 </r>
       <r>   -12.3682    12.9012    11.0742 </r>
       <r>   -12.2871    11.2046    11.9830 </r>
       <r>   -12.2060     0.2092    12.0000 </r>
       <r>   -12.1249     0.0000    12.0000 </r>
       <r>   -12.0438     0.0000    12.0000 </r>
       <r>   -11.9627     0.0000    12.0000 </r>
       <r>   -11.8816     0.0000    12.0000 </r>
       <r>   -11.8004     0.0000    12.0000 </r>
       <r>   -11.7193     0.0000    12.0000 </r>
       <r>   -11.6382     0.0000    12.0000 </r>
       <r>   -11.5571     0.0000    12.0000 </r>
       <r>   -11.4760     0.0000    12.0000 </r>
       <r>   -11.3949     0.0000    12.0000 </r>
       <r>   -11.3138     0.0000    12.0000 </r>
       <r>   -11.2326     0.0000    12.0000 </r>
       <r>   -11.1515     0.0000    12.0000 </r>
       <r>   -11.0704     0.0000    12.0000 </r>
       <r>   -10.9893     0.0000    12.0000 </r>
       <r>   -10.9082     0.0000    12.0000 </r>
       <r>   -10.8271     0.0653    12.0053 </r>
       <r>   -10.7460     7.5935    12.6212 </r>
       <r>   -10.6648    16.1123    13.9282 </r>
       <r>   -10.5837     0.8853    14.0000 </r>
       <r>   -10.5026     0.4565    14.0370 </r>
       <r>   -10.4215    13.9083    15.1652 </r>
       <r>   -10.3404    10.1404    15.9877 </r>
       <r>   -10.2593     0.1519    16.0000 </r>
       <r>   -10.1782     0.0000    16.0000 </r>
       <r>   -10.0971     0.0000    16.0000 </r>
       <r>   -10.0159     0.0816    16.0066 </r>
       <r>    -9.9348     8.2217    16.6735 </r>
       <r>    -9.8537    15.6005    17.9389 </r>
       <r>    -9.7726     0.7527    18.0000 </r>
       <r>    -9.6915     0.0009    18.0000 </r>
       <r>    -9.6104     0.8654    18.0702 </r>
       <r>    -9.5293    16.0427    19.3715 </r>
       <r>    -9.4481     7.6808    19.9945 </r>
       <r>    -9.3670     0.0674    20.0000 </r>
       <r>    -9.2859     0.0000    20.0000 </r>
       <r>    -9.2048     0.0000    20.0000 </r>
       <r>    -9.1237     0.0000    20.0000 </r>
       <r>    -9.0426     0.0000    20.0000 </r>
       <r>    -8.9615     0.0000    20.0000 </r>
       <r>    -8.8804     0.0000    20.0000 </r>
       <r>    -8.7992     0.0000    20.0000 </r>
       <r>    -8.7181     0.0001    20.0000 </r>
       <r>    -8.6370     0.2840    20.0230 </r>
       <r>    -8.5559    12.2563    21.0172 </r>
       <r>    -8.4748    11.8629    21.9794 </r>
       <r>    -8.3937     0.2535    22.0000 </r>
       <r>    -8.3126     0.0000    22.0000 </r>
       <r>    -8.2314     0.0000    22.0000 </r>
       <r>    -8.1503     0.0000    22.0000 </r>
       <r>    -8.0692     0.0000    22.0000 </r>
       <r>    -7.9881     0.0029    22.0002 </r>
       <r>    -7.9070     2.0439    22.1660 </r>
       <r>    -7.8259    18.1314    23.6367 </r>
       <r>    -7.7448     4.4729    23.9995 </r>
       <r>    -7.6637     3.7501    24.3037 </r>
       <r>    -7.5825    18.3777    25.7944 </r>
       <r>    -7.5014     2.5302    25.9996 </r>
       <r>    -7.4203     0.0046    26.0000 </r>
       <r>    -7.3392     0.0000    26.0000 </r>
       <r>    -7.2581     0.0000    26.0000 </r>
       <r>    -7.1770     0.0000    26.0000 </r>
       <r>    -7.0959     0.0000    26.0000 </r>
       <r>    -7.0147     0.0000    26.0000 </r>
       <r>    -6.9336     0.0000    26.0000 </r>
       <r>    -6.8525     0.0000    26.0000 </r>
       <r>    -6.7714     0.0000    26.0000 </r>
       <r>    -6.6903     0.0000    26.0000 </r>
       <r>    -6.6092     0.0000    26.0000 </r>
       <r>    -6.5281     0.0000    26.0000 </r>
       <r>    -6.4469     0.0000    26.0000 </r>
       <r>    -6.3658     0.0000    26.0000 </r>
       <r>    -6.2847     0.0000    26.0000 </r>
       <r>    -6.2036     0.0093    26.0008 </r>
       <r>    -6.1225     3.4757    26.2827 </r>
       <r>    -6.0414    18.4288    27.7775 </r>
       <r>    -5.9603     2.7376    27.9996 </r>
       <r>    -5.8792     0.0054    28.0000 </r>
       <r>    -5.7980     0.0262    28.0021 </r>
       <r>    -5.7169     5.3603    28.4369 </r>
       <r>    -5.6358    17.6761    29.8707 </r>
       <r>    -5.5547     1.5925    29.9999 </r>
       <r>    -5.4736     0.0017    30.0000 </r>
       <r>    -5.3925     0.0000    30.0000 </r>
       <r>    -5.3114     0.0000    30.0000 </r>
       <r>    -5.2302     0.0000    30.0000 </r>
       <r>    -5.1491     0.0000    30.0000 </r>
       <r>    -5.0680     0.0000    30.0000 </r>
       <r>    -4.9869     0.0000    30.0000 </r>
       <r>    -4.9058     0.0000    30.0000 </r>
       <r>    -4.8247     0.0000    30.0000 </r>
       <r>    -4.7436     0.0000    30.0000 </r>
       <r>    -4.6625     0.0000    30.0000 </r>
       <r>    -4.5813     0.0000    30.0000 </r>
       <r>    -4.5002     0.0000    30.0000 </r>
       <r>    -4.4191     0.0000    30.0000 </r>
       <r>    -4.3380     0.0000    30.0000 </r>
       <r>    -4.2569     0.0000    30.0000 </r>
       <r>    -4.1758     0.0000    30.0000 </r>
       <r>    -4.0947     0.0000    30.0000 </r>
       <r>    -4.0135     0.0000    30.0000 </r>
       <r>    -3.9324     0.0000    30.0000 </r>
       <r>    -3.8513     0.0000    30.0000 </r>
       <r>    -3.7702     0.0000    30.0000 </r>
       <r>    -3.6891     0.0000    30.0000 </r>
       <r>    -3.6080     0.0000    30.0000 </r>
       <r>    -3.5269     0.0000    30.0000 </r>
       <r>    -3.4458     0.0000    30.0000 </r>
       <r>    -3.3646     0.0000    30.0000 </r>
       <r>    -3.2835     0.0000    30.0000 </r>
       <r>    -3.2024     0.0000    30.0000 </r>
       <r>    -3.1213     0.0000    30.0000 </r>
       <r>    -3.0402     0.0000    30.0000 </r>
       <r>    -2.9591     0.0000    30.0000 </r>
       <r>    -2.8780     0.0000    30.0000 </r>
       <r>    -2.7968     0.0000    30.0000 </r>
       <r>    -2.7157     0.0000    30.0000 </r>
       <r>    -2.6346     0.0000    30.0000 </r>
       <r>    -2.5535     0.0000    30.0000 </r>
       <r>    -2.4724     0.0000    30.0000 </r>
       <r>    -2.3913     0.0000    30.0000 </r>
       <r>    -2.3102     0.0000    30.0000 </r>
       <r>    -2.2290     0.0000    30.0000 </r>
       <r>    -2.1479     0.0000    30.0000 </r>
       <r>    -2.0668     0.0000    30.0000 </r>
       <r>    -1.9857     0.0000    30.0000 </r>
       <r>    -1.9046     0.0000    30.0000 </r>
       <r>    -1.8235     0.0000    30.0000 </r>
       <r>    -1.7424     0.0000    30.0000 </r>
       <r>    -1.6613     0.0000    30.0000 </r>
       <r>    -1.5801     0.0000    30.0000 </r>
       <r>    -1.4990     0.0000    30.0000 </r>
       <r>    -1.4179     0.0000    30.0000 </r>
       <r>    -1.3368     0.0000    30.0000 </r>
       <r>    -1.2557     0.0001    30.0000 </r>
       <r>    -1.1746     0.3181    30.0258 </r>
       <r>    -1.0935    12.6509    31.0520 </r>
       <r>    -1.0123    11.4621    31.9817 </r>
       <r>    -0.9312     0.2260    32.0000 </r>
       <r>    -0.8501     0.7041    32.0571 </r>
       <r>    -0.7690    15.3832    33.3049 </r>
       <r>    -0.6879     8.4801    33.9928 </r>
       <r>    -0.6068     0.0893    34.0000 </r>
       <r>    -0.5257     0.5794    34.0470 </r>
       <r>    -0.4446    14.7318    35.2420 </r>
       <r>    -0.3634     9.2313    35.9907 </r>
       <r>    -0.2823     0.1142    36.0000 </r>
       <r>    -0.2012     0.0000    36.0000 </r>
       <r>    -0.1201     0.0000    36.0000 </r>
       <r>    -0.0390     0.0000    36.0000 </r>
       <r>     0.0421     0.0000    36.0000 </r>
       <r>     0.1232     0.0000    36.0000 </r>
       <r>     0.2044     0.0000    36.0000 </r>
       <r>     0.2855     0.0000    36.0000 </r>
       <r>     0.3666     0.0000    36.0000 </r>
       <r>     0.4477     0.0000    36.0000 </r>
       <r>     0.5288     0.0003    36.0000 </r>
       <r>     0.6099     0.6410    36.0520 </r>
       <r>     0.6910    15.1114    37.2778 </r>
       <r>     0.7721    15.1647    38.5078 </r>
       <r>     0.8533    26.6444    40.6690 </r>
       <r>     0.9344    37.5188    43.7123 </r>
       <r>     1.0155    22.8774    45.5680 </r>
       <r>     1.0966     5.3009    45.9979 </r>
       <r>     1.1777     0.0253    46.0000 </r>
       <r>     1.2588     0.0000    46.0000 </r>
       <r>     1.3399     0.0217    46.0018 </r>
       <r>     1.4211     4.9606    46.4041 </r>
       <r>     1.5022    17.8956    47.8557 </r>
       <r>     1.5833     1.7768    47.9998 </r>
       <r>     1.6644     0.0021    48.0000 </r>
       <r>     1.7455     0.0000    48.0000 </r>
       <r>     1.8266     0.0000    48.0000 </r>
       <r>     1.9077     0.0000    48.0000 </r>
       <r>     1.9889     0.0000    48.0000 </r>
       <r>     2.0700     0.0000    48.0000 </r>
       <r>     2.1511     0.0000    48.0000 </r>
       <r>     2.2322     0.0000    48.0000 </r>
       <r>     2.3133     0.0000    48.0000 </r>
       <r>     2.3944     0.0000    48.0000 </r>
       <r>     2.4755     0.0000    48.0000 </r>
       <r>     2.5566     0.0000    48.0000 </r>
      </set>
     </set>
    </array>
   </total>
  </dos>
 </calculation>
 <structure name="finalpos" >
  <crystal>
   <varray name="basis" >
    <v>      10.58354422       0.00000000       0.00000000 </v>
    <v>       0.00000000      10.58354422       0.00000000 </v>
    <v>       0.00000000       0.00000000      10.58354422 </v>
   </varray>
   <i name="volume">   1185.47769178 </i>
   <varray name="rec_basis" >
    <v>       0.09448631       0.00000000       0.00000000 </v>
    <v>       0.00000000       0.09448631       0.00000000 </v>
    <v>       0.00000000       0.00000000       0.09448631 </v>
   </varray>
  </crystal>
  <varray name="positions" >
   <v>       0.49829140       0.62762500       0.50859700 </v>
   <v>       0.38255240       0.56719705       0.49346195 </v>
   <v>       0.38431560       0.43658910       0.49655760 </v>
   <v>       0.50206350       0.36339255       0.50269430 </v>
   <v>       0.61659855       0.43171420       0.49634140 </v>
   <v>       0.61571775       0.56185535       0.50277070 </v>
   <v>       0.49856430       0.73798640       0.50531155 </v>
   <v>       0.29714975       0.62464690       0.49761365 </v>
   <v>       0.29426505       0.38914510       0.49542405 </v>
   <v>       0.50928140       0.26058345       0.51336680 </v>
   <v>       0.70608380       0.37674765       0.49120000 </v>
   <v>       0.69511655       0.62251735       0.49666115 </v>
  </varray>
 </structure>
</modeling>
