<?xml version="1.0" encoding="ISO-8859-1"?>
<modeling>
 <generator>
  <i name="program" type="string">vasp </i>
  <i name="version" type="string">5.4.4.18Apr17-6-g9f103f2a35  </i>
  <i name="subversion" type="string">(build Oct  7 2019 15:10:45) complex            parallel </i>
  <i name="platform" type="string">LinuxGNU </i>
  <i name="date" type="string">2021 11 10 </i>
  <i name="time" type="string">11:25:50 </i>
 </generator>
 <incar>
  <i type="string" name="SYSTEM">mos2</i>
  <i type="int" name="ISTART">     0</i>
  <i type="string" name="PREC">accurate</i>
  <i type="string" name="ALGO"> Normal</i>
  <i type="int" name="NSIM">     4</i>
  <i type="int" name="NELM">  1000</i>
  <i type="int" name="NELMIN">     2</i>
  <i type="int" name="IBRION">    -1</i>
  <i name="EDIFF">      0.00000100</i>
  <i type="int" name="NSW">     0</i>
  <i name="ENCUT">    600.00000000</i>
  <i type="string" name="LREAL"> Auto</i>
  <i type="int" name="ISMEAR">     0</i>
  <i name="SIGMA">      0.05000000</i>
  <i type="logical" name="LWAVE"> F  </i>
  <i type="logical" name="LCHARG"> T  </i>
  <v type="int" name="KPOINT_BSE">    -1     0     0     0</v>
  <i type="int" name="NELM">  1000</i>
 </incar>
 <structure name="primitive_cell" >
  <crystal>
   <varray name="basis" >
    <v>       9.55219900       0.00000000       0.00000000 </v>
    <v>      -4.77610000       8.27244700       0.00000000 </v>
    <v>       0.00000000       0.00000000      18.12711300 </v>
   </varray>
   <i name="volume">   1432.40555618 </i>
   <varray name="rec_basis" >
    <v>       0.10468794       0.06044161      -0.00000000 </v>
    <v>       0.00000000       0.12088322       0.00000000 </v>
    <v>       0.00000000      -0.00000000       0.05516598 </v>
   </varray>
  </crystal>
  <varray name="positions" >
   <v>      -0.00143275      -0.00787781       0.49937030 </v>
   <v>      -0.10922324       0.10252702      -0.41709747 </v>
   <v>      -0.10054690      -0.22744306       0.41252821 </v>
   <v>      -0.11532172      -0.22562150      -0.41062972 </v>
   <v>       0.21634209       0.11824668       0.40946203 </v>
   <v>       0.22621294       0.11120343      -0.41065258 </v>
   <v>      -0.12323706       0.10117878       0.40646851 </v>
   <v>      -0.33230771      -0.32854102      -0.49794034 </v>
   <v>       0.01616307      -0.32799808      -0.49730782 </v>
   <v>      -0.01613345       0.31565012       0.49445553 </v>
   <v>       0.34150851       0.01442971       0.49964993 </v>
   <v>       0.33557149       0.33301879      -0.49874734 </v>
   <v>      -0.34272890      -0.00727259       0.49586009 </v>
   <v>       0.20956752       0.43507588       0.41576765 </v>
   <v>       0.24063922      -0.20156647      -0.40774495 </v>
   <v>      -0.44238431      -0.21889383      -0.41214988 </v>
   <v>       0.23500395      -0.21848032       0.41649512 </v>
   <v>       0.20303500       0.43791161      -0.41411173 </v>
   <v>      -0.45098765      -0.23826635       0.41409504 </v>
   <v>      -0.11457714       0.45400512       0.41266004 </v>
   <v>      -0.43676190       0.45568839      -0.41003123 </v>
   <v>      -0.44302203       0.45069699       0.41376333 </v>
   <v>      -0.43415679       0.11620099      -0.41760162 </v>
   <v>      -0.44565383       0.11389073       0.41160450 </v>
   <v>      -0.11902588       0.43503265      -0.41272346 </v>
   <v>      -0.33166466       0.33918472       0.49956493 </v>
   <v>       0.33239398      -0.33105734      -0.49493931 </v>
  </varray>
 </structure>
 <varray name="primitive_index" >
  <v type="int" >        1 </v>
  <v type="int" >       22 </v>
  <v type="int" >       27 </v>
  <v type="int" >       26 </v>
  <v type="int" >       12 </v>
  <v type="int" >       11 </v>
  <v type="int" >       23 </v>
  <v type="int" >        8 </v>
  <v type="int" >        9 </v>
  <v type="int" >        7 </v>
  <v type="int" >        4 </v>
  <v type="int" >        2 </v>
  <v type="int" >        3 </v>
  <v type="int" >       14 </v>
  <v type="int" >       15 </v>
  <v type="int" >       20 </v>
  <v type="int" >       16 </v>
  <v type="int" >       13 </v>
  <v type="int" >       18 </v>
  <v type="int" >       25 </v>
  <v type="int" >       19 </v>
  <v type="int" >       21 </v>
  <v type="int" >       10 </v>
  <v type="int" >       17 </v>
  <v type="int" >       24 </v>
  <v type="int" >        6 </v>
  <v type="int" >        5 </v>
 </varray>
 <kpoints>
  <generation param="Gamma">
   <v type="int" name="divisions">       6        6        1 </v>
   <v name="usershift">      0.00000000       0.00000000       0.00000000 </v>
   <v name="genvec1">      0.16666667       0.00000000       0.00000000 </v>
   <v name="genvec2">      0.00000000       0.16666667       0.00000000 </v>
   <v name="genvec3">      0.00000000       0.00000000       1.00000000 </v>
   <v name="shift">      0.00000000       0.00000000       0.00000000 </v>
  </generation>
  <varray name="kpointlist" >
   <v>       0.00000000       0.00000000       0.00000000 </v>
   <v>       0.16666667       0.00000000       0.00000000 </v>
   <v>       0.33333333       0.00000000       0.00000000 </v>
   <v>       0.50000000       0.00000000       0.00000000 </v>
   <v>       0.00000000       0.16666667       0.00000000 </v>
   <v>       0.16666667       0.16666667       0.00000000 </v>
   <v>       0.33333333       0.16666667       0.00000000 </v>
   <v>       0.50000000       0.16666667       0.00000000 </v>
   <v>      -0.33333333       0.16666667       0.00000000 </v>
   <v>      -0.16666667       0.16666667       0.00000000 </v>
   <v>       0.00000000       0.33333333       0.00000000 </v>
   <v>       0.16666667       0.33333333       0.00000000 </v>
   <v>       0.33333333       0.33333333       0.00000000 </v>
   <v>       0.50000000       0.33333333       0.00000000 </v>
   <v>      -0.33333333       0.33333333       0.00000000 </v>
   <v>      -0.16666667       0.33333333       0.00000000 </v>
   <v>       0.00000000       0.50000000       0.00000000 </v>
   <v>       0.16666667       0.50000000       0.00000000 </v>
   <v>       0.33333333       0.50000000       0.00000000 </v>
   <v>       0.50000000       0.50000000       0.00000000 </v>
  </varray>
  <varray name="weights" >
   <v>       0.02777778 </v>
   <v>       0.05555556 </v>
   <v>       0.05555556 </v>
   <v>       0.02777778 </v>
   <v>       0.05555556 </v>
   <v>       0.05555556 </v>
   <v>       0.05555556 </v>
   <v>       0.05555556 </v>
   <v>       0.05555556 </v>
   <v>       0.05555556 </v>
   <v>       0.05555556 </v>
   <v>       0.05555556 </v>
   <v>       0.05555556 </v>
   <v>       0.05555556 </v>
   <v>       0.05555556 </v>
   <v>       0.05555556 </v>
   <v>       0.02777778 </v>
   <v>       0.05555556 </v>
   <v>       0.05555556 </v>
   <v>       0.02777778 </v>
  </varray>
 </kpoints>
 <parameters>
  <separator name="general" >
   <i type="string" name="SYSTEM">mos2</i>
   <i type="logical" name="LCOMPAT"> F  </i>
  </separator>
  <separator name="electronic" >
   <i type="string" name="PREC">accura</i>
   <i name="ENMAX">    600.00000000</i>
   <i name="ENAUG">    446.01400000</i>
   <i name="EDIFF">      0.00000100</i>
   <i type="int" name="IALGO">    38</i>
   <i type="int" name="IWAVPR">    10</i>
   <i type="int" name="NBANDS">   140</i>
   <i name="NELECT">    234.00000000</i>
   <i type="int" name="TURBO">     0</i>
   <i type="int" name="IRESTART">     0</i>
   <i type="int" name="NREBOOT">     0</i>
   <i type="int" name="NMIN">     0</i>
   <i name="EREF">      0.00000000</i>
   <separator name="electronic smearing" >
    <i type="int" name="ISMEAR">     0</i>
    <i name="SIGMA">      0.05000000</i>
    <i name="KSPACING">      0.50000000</i>
    <i type="logical" name="KGAMMA"> T  </i>
   </separator>
   <separator name="electronic projectors" >
    <i type="logical" name="LREAL"> T  </i>
    <v name="ROPT">     -0.00025000     -0.00025000</v>
    <i type="int" name="LMAXPAW">  -100</i>
    <i type="int" name="LMAXMIX">     2</i>
    <i type="logical" name="NLSPLINE"> F  </i>
   </separator>
   <separator name="electronic startup" >
    <i type="int" name="ISTART">     0</i>
    <i type="int" name="ICHARG">     2</i>
    <i type="int" name="INIWAV">     1</i>
   </separator>
   <separator name="electronic spin" >
    <i type="int" name="ISPIN">     1</i>
    <i type="logical" name="LNONCOLLINEAR"> F  </i>
    <v name="MAGMOM">      1.00000000      1.00000000      1.00000000      1.00000000      1.00000000      1.00000000      1.00000000      1.00000000      1.00000000      1.00000000      1.00000000      1.00000000      1.00000000      1.00000000      1.00000000      1.00000000      1.00000000      1.00000000      1.00000000      1.00000000
      1.00000000      1.00000000      1.00000000      1.00000000      1.00000000      1.00000000      1.00000000</v>
    <i name="NUPDOWN">     -1.00000000</i>
    <i type="logical" name="LSORBIT"> F  </i>
    <v name="SAXIS">      0.00000000      0.00000000      1.00000000</v>
    <i type="logical" name="LSPIRAL"> F  </i>
    <v name="QSPIRAL">      0.00000000      0.00000000      0.00000000</v>
    <i type="logical" name="LZEROZ"> F  </i>
   </separator>
   <separator name="electronic exchange-correlation" >
    <i type="logical" name="LASPH"> F  </i>
    <i type="logical" name="LMETAGGA"> F  </i>
   </separator>
   <separator name="electronic convergence" >
    <i type="int" name="NELM">  1000</i>
    <i type="int" name="NELMDL">    -5</i>
    <i type="int" name="NELMIN">     2</i>
    <i name="ENINI">    600.00000000</i>
    <separator name="electronic convergence detail" >
     <i type="logical" name="LDIAG"> T  </i>
     <i type="logical" name="LSUBROT"> F  </i>
     <i name="WEIMIN">      0.00000000</i>
     <i name="EBREAK">      0.00000000</i>
     <i name="DEPER">      0.30000000</i>
     <i type="int" name="NRMM">     4</i>
     <i name="TIME">      0.40000000</i>
    </separator>
   </separator>
   <separator name="electronic mixer" >
    <i name="AMIX">      0.40000000</i>
    <i name="BMIX">      1.00000000</i>
    <i name="AMIN">      0.10000000</i>
    <i name="AMIX_MAG">      1.60000000</i>
    <i name="BMIX_MAG">      1.00000000</i>
    <separator name="electronic mixer details" >
     <i type="int" name="IMIX">     4</i>
     <i type="logical" name="MIXFIRST"> F  </i>
     <i type="int" name="MAXMIX">   -45</i>
     <i name="WC">    100.00000000</i>
     <i type="int" name="INIMIX">     1</i>
     <i type="int" name="MIXPRE">     1</i>
     <i type="int" name="MREMOVE">     5</i>
    </separator>
   </separator>
   <separator name="electronic dipolcorrection" >
    <i type="logical" name="LDIPOL"> F  </i>
    <i type="logical" name="LMONO"> F  </i>
    <i type="int" name="IDIPOL">     0</i>
    <i name="EPSILON">      1.00000000</i>
    <v name="DIPOL">   -100.00000000   -100.00000000   -100.00000000</v>
    <i name="EFIELD">      0.00000000</i>
   </separator>
  </separator>
  <separator name="grids" >
   <i type="int" name="NGX">    80</i>
   <i type="int" name="NGY">    80</i>
   <i type="int" name="NGZ">   150</i>
   <i type="int" name="NGXF">   160</i>
   <i type="int" name="NGYF">   160</i>
   <i type="int" name="NGZF">   300</i>
   <i type="logical" name="ADDGRID"> F  </i>
  </separator>
  <separator name="ionic" >
   <i type="int" name="NSW">     0</i>
   <i type="int" name="IBRION">    -1</i>
   <i type="int" name="MDALGO">     0</i>
   <i type="int" name="ISIF">     2</i>
   <i name="PSTRESS">      0.00000000</i>
   <i name="EDIFFG">      0.00001000</i>
   <i type="int" name="NFREE">     0</i>
   <i name="POTIM">      0.50000000</i>
   <i name="SMASS">     -3.00000000</i>
   <i name="SCALEE">      1.00000000</i>
  </separator>
  <separator name="ionic md" >
   <i name="TEBEG">      0.00010000</i>
   <i name="TEEND">      0.00010000</i>
   <i type="int" name="NBLOCK">     1</i>
   <i type="int" name="KBLOCK">     1</i>
   <i type="int" name="NPACO">   256</i>
   <i name="APACO">     16.00000000</i>
  </separator>
  <separator name="symmetry" >
   <i type="int" name="ISYM">     2</i>
   <i name="SYMPREC">      0.00001000</i>
  </separator>
  <separator name="dos" >
   <i type="int" name="LORBIT">     0</i>
   <v name="RWIGS">     -1.00000000     -1.00000000</v>
   <i type="int" name="NEDOS">   301</i>
   <i name="EMIN">     10.00000000</i>
   <i name="EMAX">    -10.00000000</i>
   <i name="EFERMI">      0.00000000</i>
  </separator>
  <separator name="writing" >
   <i type="int" name="NWRITE">     2</i>
   <i type="logical" name="LWAVE"> F  </i>
   <i type="logical" name="LDOWNSAMPLE"> F  </i>
   <i type="logical" name="LCHARG"> T  </i>
   <i type="logical" name="LPARD"> F  </i>
   <i type="logical" name="LVTOT"> F  </i>
   <i type="logical" name="LVHAR"> F  </i>
   <i type="logical" name="LELF"> F  </i>
   <i type="logical" name="LOPTICS"> F  </i>
   <v name="STM">      0.00000000      0.00000000      0.00000000      0.00000000      0.00000000      0.00000000      0.00000000</v>
  </separator>
  <separator name="performance" >
   <i type="int" name="NPAR">     4</i>
   <i type="int" name="NSIM">     4</i>
   <i type="int" name="NBLK">    -1</i>
   <i type="logical" name="LPLANE"> T  </i>
   <i type="logical" name="LSCALAPACK"> T  </i>
   <i type="logical" name="LSCAAWARE"> F  </i>
   <i type="logical" name="LSCALU"> F  </i>
   <i type="logical" name="LASYNC"> F  </i>
   <i type="logical" name="LORBITALREAL"> F  </i>
  </separator>
  <separator name="miscellaneous" >
   <i type="int" name="IDIOT">     3</i>
   <i type="int" name="ISPECIAL">     0</i>
   <i type="logical" name="LMUSIC"> F  </i>
   <v name="POMASS">     95.94000000     32.06600000</v>
   <v name="DARWINR">      0.00000000      0.00000000</v>
   <v name="DARWINV">      1.00000000      1.00000000</v>
   <i type="logical" name="LCORR"> T  </i>
  </separator>
  <i type="logical" name="GGA_COMPAT"> T  </i>
  <i type="logical" name="LBERRY"> F  </i>
  <i type="int" name="ICORELEVEL">     0</i>
  <i type="logical" name="LDAU"> F  </i>
  <i type="int" name="I_CONSTRAINED_M">     0</i>
  <separator name="electronic exchange-correlation" >
   <i type="string" name="GGA">--</i>
   <i type="int" name="VOSKOWN">     0</i>
   <i type="logical" name="LHFCALC"> F  </i>
   <i type="string" name="PRECFOCK"></i>
   <i type="logical" name="LSYMGRAD"> F  </i>
   <i type="logical" name="LHFONE"> F  </i>
   <i type="logical" name="LRHFCALC"> F  </i>
   <i type="logical" name="LTHOMAS"> F  </i>
   <i type="logical" name="LMODELHF"> F  </i>
   <i name="ENCUT4O">     -1.00000000</i>
   <i type="int" name="EXXOEP">     0</i>
   <i type="int" name="FOURORBIT">     0</i>
   <i name="AEXX">      0.00000000</i>
   <i name="HFALPHA">      0.00000000</i>
   <i name="MCALPHA">      0.00000000</i>
   <i name="ALDAX">      1.00000000</i>
   <i name="AGGAX">      1.00000000</i>
   <i name="ALDAC">      1.00000000</i>
   <i name="AGGAC">      1.00000000</i>
   <i type="int" name="NKREDX">     1</i>
   <i type="int" name="NKREDY">     1</i>
   <i type="int" name="NKREDZ">     1</i>
   <i type="logical" name="SHIFTRED"> F  </i>
   <i type="logical" name="ODDONLY"> F  </i>
   <i type="logical" name="EVENONLY"> F  </i>
   <i type="int" name="LMAXFOCK">     0</i>
   <i type="int" name="NMAXFOCKAE">     0</i>
   <i type="logical" name="LFOCKAEDFT"> F  </i>
   <i name="HFSCREEN">      0.00000000</i>
   <i name="HFSCREENC">      0.00000000</i>
   <i type="int" name="NBANDSGWLOW">     0</i>
  </separator>
  <separator name="vdW DFT" >
   <i type="logical" name="LUSE_VDW"> F  </i>
   <i name="Zab_VDW">     -0.84910000</i>
   <i name="PARAM1">      0.12340000</i>
   <i name="PARAM2">      1.00000000</i>
   <i name="PARAM3">      0.00000000</i>
  </separator>
  <separator name="model GW" >
   <i type="int" name="MODEL_GW">     0</i>
   <i name="MODEL_EPS0">     31.83123458</i>
   <i name="MODEL_ALPHA">      1.00000000</i>
  </separator>
  <separator name="linear response parameters" >
   <i type="logical" name="LEPSILON"> F  </i>
   <i type="logical" name="LRPA"> F  </i>
   <i type="logical" name="LNABLA"> F  </i>
   <i type="logical" name="LVEL"> F  </i>
   <i type="int" name="KINTER">     0</i>
   <i name="CSHIFT">      0.10000000</i>
   <i name="OMEGAMAX">     -1.00000000</i>
   <i name="DEG_THRESHOLD">      0.00200000</i>
   <i name="RTIME">     -0.10000000</i>
   <i name="WPLASMAI">      0.00000000</i>
   <v name="DFIELD">      0.00000000      0.00000000      0.00000000</v>
   <v name="WPLASMA">      0.00000000      0.00000000      0.00000000      0.00000000      0.00000000      0.00000000      0.00000000      0.00000000      0.00000000</v>
  </separator>
  <separator name="orbital magnetization" >
   <i type="logical" name="NUCIND"> F  </i>
   <v name="MAGPOS">      0.00000000      0.00000000      0.00000000</v>
   <i type="logical" name="LNICSALL"> T  </i>
   <i type="logical" name="ORBITALMAG"> F  </i>
   <i type="logical" name="LMAGBLOCH"> F  </i>
   <i type="logical" name="LCHIMAG"> F  </i>
   <i type="logical" name="LGAUGE"> T  </i>
   <i type="int" name="MAGATOM">     0</i>
   <v name="MAGDIPOL">      0.00000000      0.00000000      0.00000000</v>
   <v name="AVECCONST">      0.00000000      0.00000000      0.00000000</v>
  </separator>
  <separator name="response functions" >
   <i type="logical" name="LADDER"> F  </i>
   <i type="logical" name="LRPAFORCE"> F  </i>
   <i type="logical" name="LFXC"> F  </i>
   <i type="logical" name="LHARTREE"> T  </i>
   <i type="int" name="IBSE">     0</i>
   <v type="int" name="KPOINT">    -1     0     0     0</v>
   <i type="logical" name="LTCTE"> F  </i>
   <i type="logical" name="LTETE"> F  </i>
   <i type="logical" name="LTRIPLET"> F  </i>
   <i type="logical" name="LFXCEPS"> F  </i>
   <i type="logical" name="LFXHEG"> F  </i>
   <i type="int" name="NATURALO">     2</i>
   <i type="logical" name="L2ORDER"> F  </i>
   <i type="logical" name="LMP2LT"> F  </i>
   <i type="logical" name="LUSEW"> F  </i>
   <i name="ENCUTGW">     -2.00000000</i>
   <i name="ENCUTGWSOFT">     -2.00000000</i>
   <i name="ENCUTLF">     -1.00000000</i>
   <i type="int" name="LMAXMP2">    -1</i>
   <i name="SCISSOR">      0.00000000</i>
   <i type="int" name="NOMEGA">     0</i>
   <i type="int" name="NOMEGAR">     0</i>
   <i type="int" name="NBANDSGW">    -1</i>
   <i type="int" name="NBANDSO">    -1</i>
   <i type="int" name="NBANDSV">    -1</i>
   <i type="int" name="NELM">  1000</i>
   <i type="int" name="NELMHF">     1</i>
   <i type="int" name="DIM">     3</i>
   <i type="int" name="ANTIRES">     0</i>
   <i name="OMEGAMAX">    -30.00000000</i>
   <i name="OMEGAMIN">    -30.00000000</i>
   <i name="OMEGATL">   -200.00000000</i>
   <i type="int" name="OMEGAGRID">   140</i>
   <i name="CSHIFT">     -0.10000000</i>
   <i type="logical" name="SELFENERGY"> F  </i>
   <i type="logical" name="LSPECTRAL"> F  </i>
   <i type="logical" name="LSPECTRALGW"> F  </i>
   <i type="logical" name="LSINGLES"> F  </i>
   <i type="logical" name="LFERMIGW"> F  </i>
   <i type="logical" name="ODDONLYGW"> F  </i>
   <i type="logical" name="EVENONLYGW"> F  </i>
   <i type="int" name="NKREDLFX">     1</i>
   <i type="int" name="NKREDLFY">     1</i>
   <i type="int" name="NKREDLFZ">     1</i>
   <i type="int" name="MAXMEM">  2800</i>
   <i type="int" name="TELESCOPE">     0</i>
   <i type="int" name="TAUPAR">     1</i>
   <i type="int" name="OMEGAPAR">    -1</i>
   <i name="LAMBDA">      1.00000000</i>
  </separator>
  <separator name="External order field" >
   <i name="OFIELD_KAPPA">      0.00000000</i>
   <v name="OFIELD_K">      0.00000000      0.00000000      0.00000000</v>
   <i name="OFIELD_Q6_NEAR">      0.00000000</i>
   <i name="OFIELD_Q6_FAR">      0.00000000</i>
   <i name="OFIELD_A">      0.00000000</i>
  </separator>
 </parameters>
 <atominfo>
  <atoms>      27 </atoms>
  <types>       2 </types>
  <array name="atoms" >
   <dimension dim="1">ion</dimension>
   <field type="string">element</field>
   <field type="int">atomtype</field>
   <set>
    <rc><c>Mo</c><c>   1</c></rc>
    <rc><c>Mo</c><c>   1</c></rc>
    <rc><c>Mo</c><c>   1</c></rc>
    <rc><c>Mo</c><c>   1</c></rc>
    <rc><c>Mo</c><c>   1</c></rc>
    <rc><c>Mo</c><c>   1</c></rc>
    <rc><c>Mo</c><c>   1</c></rc>
    <rc><c>Mo</c><c>   1</c></rc>
    <rc><c>Mo</c><c>   1</c></rc>
    <rc><c>S </c><c>   2</c></rc>
    <rc><c>S </c><c>   2</c></rc>
    <rc><c>S </c><c>   2</c></rc>
    <rc><c>S </c><c>   2</c></rc>
    <rc><c>S </c><c>   2</c></rc>
    <rc><c>S </c><c>   2</c></rc>
    <rc><c>S </c><c>   2</c></rc>
    <rc><c>S </c><c>   2</c></rc>
    <rc><c>S </c><c>   2</c></rc>
    <rc><c>S </c><c>   2</c></rc>
    <rc><c>S </c><c>   2</c></rc>
    <rc><c>S </c><c>   2</c></rc>
    <rc><c>S </c><c>   2</c></rc>
    <rc><c>S </c><c>   2</c></rc>
    <rc><c>S </c><c>   2</c></rc>
    <rc><c>S </c><c>   2</c></rc>
    <rc><c>S </c><c>   2</c></rc>
    <rc><c>S </c><c>   2</c></rc>
   </set>
  </array>
  <array name="atomtypes" >
   <dimension dim="1">type</dimension>
   <field type="int">atomspertype</field>
   <field type="string">element</field>
   <field>mass</field>
   <field>valence</field>
   <field type="string">pseudopotential</field>
   <set>
    <rc><c>   9</c><c>Mo</c><c>     95.94000000</c><c>     14.00000000</c><c>  PAW_PBE Mo_sv 02Feb2006               </c></rc>
    <rc><c>  18</c><c>S </c><c>     32.06600000</c><c>      6.00000000</c><c>  PAW_PBE S 06Sep2000                   </c></rc>
   </set>
  </array>
 </atominfo>
 <structure name="initialpos" >
  <crystal>
   <varray name="basis" >
    <v>       9.55219900       0.00000000       0.00000000 </v>
    <v>      -4.77610000       8.27244700       0.00000000 </v>
    <v>       0.00000000       0.00000000      18.12711300 </v>
   </varray>
   <i name="volume">   1432.40555618 </i>
   <varray name="rec_basis" >
    <v>       0.10468794       0.06044161      -0.00000000 </v>
    <v>       0.00000000       0.12088322       0.00000000 </v>
    <v>       0.00000000      -0.00000000       0.05516598 </v>
   </varray>
  </crystal>
  <varray name="positions" >
   <v>       0.99856725       0.99212219       0.49937030 </v>
   <v>       0.33557149       0.33301879       0.50125266 </v>
   <v>       0.65727110       0.99272741       0.49586009 </v>
   <v>       0.34150851       0.01442971       0.49964993 </v>
   <v>       0.33239398       0.66894266       0.50506069 </v>
   <v>       0.66833534       0.33918472       0.49956493 </v>
   <v>       0.98386655       0.31565012       0.49445553 </v>
   <v>       0.66769229       0.67145898       0.50205966 </v>
   <v>       0.01616307       0.67200192       0.50269218 </v>
   <v>       0.56584321       0.11620099       0.58239838 </v>
   <v>       0.22621294       0.11120343       0.58934742 </v>
   <v>       0.21634209       0.11824668       0.40946203 </v>
   <v>       0.20303500       0.43791161       0.58588827 </v>
   <v>       0.20956752       0.43507588       0.41576765 </v>
   <v>       0.24063922       0.79843353       0.59225505 </v>
   <v>       0.23500395       0.78151968       0.41649512 </v>
   <v>       0.55434617       0.11389073       0.41160450 </v>
   <v>       0.54901235       0.76173365       0.41409504 </v>
   <v>       0.56323810       0.45568839       0.58996877 </v>
   <v>       0.55761569       0.78110617       0.58785012 </v>
   <v>       0.55697797       0.45069699       0.41376333 </v>
   <v>       0.89077676       0.10252702       0.58290253 </v>
   <v>       0.87676294       0.10117878       0.40646851 </v>
   <v>       0.88097412       0.43503265       0.58727654 </v>
   <v>       0.88542286       0.45400512       0.41266004 </v>
   <v>       0.88467828       0.77437850       0.58937028 </v>
   <v>       0.89945310       0.77255694       0.41252821 </v>
  </varray>
 </structure>
 <calculation>
  <scstep>
   <time name="dav">   82.00   82.49</time>
   <time name="total">   82.57   83.07</time>
   <energy>
    <i name="alphaZ">    267.51052480 </i>
    <i name="ewald">  39921.63056620 </i>
    <i name="hartreedc"> -59005.89367872 </i>
    <i name="XCdc">    821.18953139 </i>
    <i name="pawpsdc">  17395.10119161 </i>
    <i name="pawaedc"> -17171.31696658 </i>
    <i name="eentropy">     -0.01389878 </i>
    <i name="bandstr">  -1791.90422737 </i>
    <i name="atom">  21743.34108040 </i>
    <i name="e_fr_energy">   2179.64412293 </i>
    <i name="e_wo_entrp">   2179.65802172 </i>
    <i name="e_0_energy">   2179.65107232 </i>
   </energy>
  </scstep>
  <scstep>
   <time name="dav">   86.08   86.58</time>
   <time name="total">   86.08   86.58</time>
   <energy>
    <i name="e_fr_energy">      6.76189572 </i>
    <i name="e_wo_entrp">      6.76189572 </i>
    <i name="e_0_energy">      6.76189572 </i>
   </energy>
  </scstep>
  <scstep>
   <time name="dav">   77.05   77.49</time>
   <time name="total">   77.05   77.49</time>
   <energy>
    <i name="e_fr_energy">   -200.48447580 </i>
    <i name="e_wo_entrp">   -200.48447580 </i>
    <i name="e_0_energy">   -200.48447580 </i>
   </energy>
  </scstep>
  <scstep>
   <time name="dav">   85.70   86.20</time>
   <time name="total">   85.70   86.21</time>
   <energy>
    <i name="e_fr_energy">   -209.05672496 </i>
    <i name="e_wo_entrp">   -209.05672496 </i>
    <i name="e_0_energy">   -209.05672496 </i>
   </energy>
  </scstep>
  <scstep>
   <time name="dav">   91.15   91.67</time>
   <time name="total">   97.48   98.03</time>
   <energy>
    <i name="e_fr_energy">   -209.32667665 </i>
    <i name="e_wo_entrp">   -209.32667665 </i>
    <i name="e_0_energy">   -209.32667665 </i>
   </energy>
  </scstep>
  <scstep>
   <time name="dav">   75.43   75.87</time>
   <time name="total">   82.33   82.79</time>
   <energy>
    <i name="e_fr_energy">   -199.40494237 </i>
    <i name="e_wo_entrp">   -199.40494237 </i>
    <i name="e_0_energy">   -199.40494237 </i>
   </energy>
  </scstep>
  <scstep>
   <time name="dav">   75.00   75.43</time>
   <time name="total">   81.81   82.28</time>
   <energy>
    <i name="e_fr_energy">   -197.24204066 </i>
    <i name="e_wo_entrp">   -197.24204066 </i>
    <i name="e_0_energy">   -197.24204066 </i>
   </energy>
  </scstep>
  <scstep>
   <time name="dav">   79.46   79.91</time>
   <time name="total">   86.26   86.75</time>
   <energy>
    <i name="e_fr_energy">   -195.51202128 </i>
    <i name="e_wo_entrp">   -195.51202128 </i>
    <i name="e_0_energy">   -195.51202128 </i>
   </energy>
  </scstep>
  <scstep>
   <time name="dav">   87.34   87.84</time>
   <time name="total">   94.15   94.69</time>
   <energy>
    <i name="e_fr_energy">   -195.50451379 </i>
    <i name="e_wo_entrp">   -195.50451379 </i>
    <i name="e_0_energy">   -195.50451379 </i>
   </energy>
  </scstep>
  <scstep>
   <time name="dav">   85.32   85.81</time>
   <time name="total">   92.15   92.67</time>
   <energy>
    <i name="e_fr_energy">   -195.42732390 </i>
    <i name="e_wo_entrp">   -195.42732390 </i>
    <i name="e_0_energy">   -195.42732390 </i>
   </energy>
  </scstep>
  <scstep>
   <time name="dav">   85.21   85.69</time>
   <time name="total">   92.01   92.53</time>
   <energy>
    <i name="e_fr_energy">   -195.40043201 </i>
    <i name="e_wo_entrp">   -195.40043201 </i>
    <i name="e_0_energy">   -195.40043201 </i>
   </energy>
  </scstep>
  <scstep>
   <time name="dav">   87.13   87.62</time>
   <time name="total">   93.92   94.45</time>
   <energy>
    <i name="e_fr_energy">   -195.39603200 </i>
    <i name="e_wo_entrp">   -195.39603200 </i>
    <i name="e_0_energy">   -195.39603200 </i>
   </energy>
  </scstep>
  <scstep>
   <time name="dav">   84.24   84.72</time>
   <time name="total">   91.01   91.54</time>
   <energy>
    <i name="e_fr_energy">   -195.39142039 </i>
    <i name="e_wo_entrp">   -195.39142039 </i>
    <i name="e_0_energy">   -195.39142039 </i>
   </energy>
  </scstep>
  <scstep>
   <time name="dav">   82.15   82.62</time>
   <time name="total">   88.93   89.43</time>
   <energy>
    <i name="e_fr_energy">   -195.39108915 </i>
    <i name="e_wo_entrp">   -195.39108915 </i>
    <i name="e_0_energy">   -195.39108915 </i>
   </energy>
  </scstep>
  <scstep>
   <time name="dav">   78.90   79.35</time>
   <time name="total">   85.53   86.02</time>
   <energy>
    <i name="e_fr_energy">   -195.39080449 </i>
    <i name="e_wo_entrp">   -195.39080449 </i>
    <i name="e_0_energy">   -195.39080449 </i>
   </energy>
  </scstep>
  <scstep>
   <time name="dav">   79.22   79.69</time>
   <time name="total">   85.92   86.42</time>
   <energy>
    <i name="e_fr_energy">   -195.39099305 </i>
    <i name="e_wo_entrp">   -195.39099305 </i>
    <i name="e_0_energy">   -195.39099305 </i>
   </energy>
  </scstep>
  <scstep>
   <time name="dav">   77.80   78.25</time>
   <time name="total">   84.50   84.98</time>
   <energy>
    <i name="e_fr_energy">   -195.39140254 </i>
    <i name="e_wo_entrp">   -195.39140254 </i>
    <i name="e_0_energy">   -195.39140254 </i>
   </energy>
  </scstep>
  <scstep>
   <time name="dav">   81.57   82.03</time>
   <time name="total">   88.23   88.73</time>
   <energy>
    <i name="e_fr_energy">   -195.39198859 </i>
    <i name="e_wo_entrp">   -195.39198859 </i>
    <i name="e_0_energy">   -195.39198859 </i>
   </energy>
  </scstep>
  <scstep>
   <time name="dav">   82.51   82.99</time>
   <time name="total">   89.14   89.65</time>
   <energy>
    <i name="e_fr_energy">   -195.39220023 </i>
    <i name="e_wo_entrp">   -195.39220023 </i>
    <i name="e_0_energy">   -195.39220023 </i>
   </energy>
  </scstep>
  <scstep>
   <time name="dav">   72.20   72.62</time>
   <time name="total">   78.86   79.30</time>
   <energy>
    <i name="e_fr_energy">   -195.39227378 </i>
    <i name="e_wo_entrp">   -195.39227378 </i>
    <i name="e_0_energy">   -195.39227378 </i>
   </energy>
  </scstep>
  <scstep>
   <time name="dav">   65.56   65.97</time>
   <time name="total">   72.25   72.69</time>
   <energy>
    <i name="e_fr_energy">   -195.39247485 </i>
    <i name="e_wo_entrp">   -195.39247485 </i>
    <i name="e_0_energy">   -195.39247485 </i>
   </energy>
  </scstep>
  <scstep>
   <time name="dav">   64.70   65.09</time>
   <time name="total">   71.36   71.79</time>
   <energy>
    <i name="e_fr_energy">   -195.39257349 </i>
    <i name="e_wo_entrp">   -195.39257349 </i>
    <i name="e_0_energy">   -195.39257349 </i>
   </energy>
  </scstep>
  <scstep>
   <time name="dav">   58.98   59.32</time>
   <time name="total">   65.62   66.00</time>
   <energy>
    <i name="e_fr_energy">   -195.39266185 </i>
    <i name="e_wo_entrp">   -195.39266185 </i>
    <i name="e_0_energy">   -195.39266185 </i>
   </energy>
  </scstep>
  <scstep>
   <time name="dav">   61.33   61.70</time>
   <time name="total">   67.94   68.34</time>
   <energy>
    <i name="e_fr_energy">   -195.39281938 </i>
    <i name="e_wo_entrp">   -195.39281938 </i>
    <i name="e_0_energy">   -195.39281938 </i>
   </energy>
  </scstep>
  <scstep>
   <time name="dav">   63.61   63.98</time>
   <time name="total">   70.24   70.63</time>
   <energy>
    <i name="e_fr_energy">   -195.39293177 </i>
    <i name="e_wo_entrp">   -195.39293177 </i>
    <i name="e_0_energy">   -195.39293177 </i>
   </energy>
  </scstep>
  <scstep>
   <time name="dav">   56.69   57.00</time>
   <time name="total">   63.32   63.66</time>
   <energy>
    <i name="e_fr_energy">   -195.39296269 </i>
    <i name="e_wo_entrp">   -195.39296269 </i>
    <i name="e_0_energy">   -195.39296269 </i>
   </energy>
  </scstep>
  <scstep>
   <time name="dav">   57.26   57.59</time>
   <time name="total">   63.91   64.26</time>
   <energy>
    <i name="e_fr_energy">   -195.39298662 </i>
    <i name="e_wo_entrp">   -195.39298662 </i>
    <i name="e_0_energy">   -195.39298662 </i>
   </energy>
  </scstep>
  <scstep>
   <time name="dav">   55.29   55.60</time>
   <time name="total">   61.92   62.26</time>
   <energy>
    <i name="e_fr_energy">   -195.39300038 </i>
    <i name="e_wo_entrp">   -195.39300038 </i>
    <i name="e_0_energy">   -195.39300038 </i>
   </energy>
  </scstep>
  <scstep>
   <time name="dav">   50.38   50.67</time>
   <time name="total">   57.01   57.32</time>
   <energy>
    <i name="e_fr_energy">   -195.39300382 </i>
    <i name="e_wo_entrp">   -195.39300382 </i>
    <i name="e_0_energy">   -195.39300382 </i>
   </energy>
  </scstep>
  <scstep>
   <time name="dav">   48.82   49.11</time>
   <time name="total">   55.44   55.75</time>
   <energy>
    <i name="e_fr_energy">   -195.39300557 </i>
    <i name="e_wo_entrp">   -195.39300557 </i>
    <i name="e_0_energy">   -195.39300557 </i>
   </energy>
  </scstep>
  <scstep>
   <time name="dav">   49.67   49.95</time>
   <time name="total">   56.36   56.67</time>
   <energy>
    <i name="e_fr_energy">   -195.39300657 </i>
    <i name="e_wo_entrp">   -195.39300657 </i>
    <i name="e_0_energy">   -195.39300657 </i>
   </energy>
  </scstep>
  <scstep>
   <time name="dav">   47.58   47.85</time>
   <time name="total">   48.10   48.37</time>
   <energy>
    <i name="alphaZ">    267.51052480 </i>
    <i name="ewald">  39921.63056620 </i>
    <i name="hartreedc"> -58968.39935403 </i>
    <i name="XCdc">    815.87447808 </i>
    <i name="pawpsdc">  25890.66357741 </i>
    <i name="pawaedc"> -25700.87917142 </i>
    <i name="eentropy">     -0.00000000 </i>
    <i name="bandstr">  -4165.13470835 </i>
    <i name="atom">  21743.34108040 </i>
    <i name="e_fr_energy">   -195.39300691 </i>
    <i name="e_wo_entrp">   -195.39300691 </i>
    <i name="e_0_energy">   -195.39300691 </i>
   </energy>
  </scstep>
  <structure>
   <crystal>
    <varray name="basis" >
     <v>       9.55219900       0.00000000       0.00000000 </v>
     <v>      -4.77610000       8.27244700       0.00000000 </v>
     <v>       0.00000000       0.00000000      18.12711300 </v>
    </varray>
    <i name="volume">   1432.40555618 </i>
    <varray name="rec_basis" >
     <v>       0.10468794       0.06044161      -0.00000000 </v>
     <v>       0.00000000       0.12088322       0.00000000 </v>
     <v>       0.00000000      -0.00000000       0.05516598 </v>
    </varray>
   </crystal>
   <varray name="positions" >
    <v>       0.99856725       0.99212219       0.49937030 </v>
    <v>       0.33557149       0.33301879       0.50125266 </v>
    <v>       0.65727110       0.99272741       0.49586009 </v>
    <v>       0.34150851       0.01442971       0.49964993 </v>
    <v>       0.33239398       0.66894266       0.50506069 </v>
    <v>       0.66833534       0.33918472       0.49956493 </v>
    <v>       0.98386655       0.31565012       0.49445553 </v>
    <v>       0.66769229       0.67145898       0.50205966 </v>
    <v>       0.01616307       0.67200192       0.50269218 </v>
    <v>       0.56584321       0.11620099       0.58239838 </v>
    <v>       0.22621294       0.11120343       0.58934742 </v>
    <v>       0.21634209       0.11824668       0.40946203 </v>
    <v>       0.20303500       0.43791161       0.58588827 </v>
    <v>       0.20956752       0.43507588       0.41576765 </v>
    <v>       0.24063922       0.79843353       0.59225505 </v>
    <v>       0.23500395       0.78151968       0.41649512 </v>
    <v>       0.55434617       0.11389073       0.41160450 </v>
    <v>       0.54901235       0.76173365       0.41409504 </v>
    <v>       0.56323810       0.45568839       0.58996877 </v>
    <v>       0.55761569       0.78110617       0.58785012 </v>
    <v>       0.55697797       0.45069699       0.41376333 </v>
    <v>       0.89077676       0.10252702       0.58290253 </v>
    <v>       0.87676294       0.10117878       0.40646851 </v>
    <v>       0.88097412       0.43503265       0.58727654 </v>
    <v>       0.88542286       0.45400512       0.41266004 </v>
    <v>       0.88467828       0.77437850       0.58937028 </v>
    <v>       0.89945310       0.77255694       0.41252821 </v>
   </varray>
  </structure>
  <varray name="forces" >
   <v>       0.11557522       0.89258415      -0.52497351 </v>
   <v>      -1.08702168       0.31341063       0.28293269 </v>
   <v>       1.42924967       0.43138031       0.26894728 </v>
   <v>      -0.30137749      -1.46736584      -0.20405145 </v>
   <v>       0.41063779      -0.73969481      -0.67647403 </v>
   <v>      -0.27023653      -0.02662534      -0.16333283 </v>
   <v>      -0.27366518       1.73942423       1.17949102 </v>
   <v>       0.92398056      -0.80628541      -0.53100264 </v>
   <v>      -1.60254752      -0.53951396       0.47240369 </v>
   <v>      -0.44173614       0.04381677       0.47433812 </v>
   <v>      -0.46485916       0.24379444      -0.72832405 </v>
   <v>       0.79163059      -0.25044858       1.02114358 </v>
   <v>       0.71777982      -0.29493288      -0.38727366 </v>
   <v>       0.65249195       0.68367346       0.08247430 </v>
   <v>      -0.34036048      -0.54546192      -0.77975431 </v>
   <v>      -0.42605287       0.35861072       0.03978230 </v>
   <v>       0.01024886       0.39170153      -0.09064200 </v>
   <v>      -0.69427441       0.60317558      -0.02940288 </v>
   <v>      -0.26635516      -0.70925493      -0.63412689 </v>
   <v>      -0.20753555       0.02230642       0.01619371 </v>
   <v>      -0.10346376      -0.10993446       0.38445844 </v>
   <v>      -0.96846320      -0.20120141      -0.15546144 </v>
   <v>       0.43944593      -0.47803478       0.72913210 </v>
   <v>       0.75245109       0.49039736      -0.62348971 </v>
   <v>       0.80307049      -0.39210015       0.28986053 </v>
   <v>       0.89331889       0.27768245      -0.54673224 </v>
   <v>      -0.49193175       0.06889641       0.83388388 </v>
  </varray>
  <varray name="stress" >
   <v>      -2.43588160      -0.05330711      -2.47554904 </v>
   <v>      -0.05330711      -2.37759381      -2.99251629 </v>
   <v>      -2.47554908      -2.99251627     -12.49072360 </v>
  </varray>
  <energy>
   <i name="e_fr_energy">   -195.39300691 </i>
   <i name="e_wo_entrp">   -195.39300691 </i>
   <i name="e_0_energy">     -0.00000000 </i>
  </energy>
  <time name="totalsc"> 2617.05 2632.36</time>
  <eigenvalues>
   <array>
    <dimension dim="1">band</dimension>
    <dimension dim="2">kpoint</dimension>
    <dimension dim="3">spin</dimension>
    <field>eigene</field>
    <field>occ</field>
    <set>
     <set comment="spin 1">
      <set comment="kpoint 1">
       <r>  -62.5045    1.0000 </r>
       <r>  -62.4892    1.0000 </r>
       <r>  -62.4861    1.0000 </r>
       <r>  -62.4789    1.0000 </r>
       <r>  -62.4622    1.0000 </r>
       <r>  -62.4512    1.0000 </r>
       <r>  -62.4451    1.0000 </r>
       <r>  -62.4342    1.0000 </r>
       <r>  -62.4314    1.0000 </r>
       <r>  -36.7305    1.0000 </r>
       <r>  -36.7196    1.0000 </r>
       <r>  -36.7147    1.0000 </r>
       <r>  -36.7020    1.0000 </r>
       <r>  -36.6983    1.0000 </r>
       <r>  -36.6895    1.0000 </r>
       <r>  -36.6796    1.0000 </r>
       <r>  -36.6651    1.0000 </r>
       <r>  -36.6599    1.0000 </r>
       <r>  -36.6422    1.0000 </r>
       <r>  -36.6333    1.0000 </r>
       <r>  -36.5994    1.0000 </r>
       <r>  -36.5850    1.0000 </r>
       <r>  -36.5815    1.0000 </r>
       <r>  -36.5755    1.0000 </r>
       <r>  -36.5628    1.0000 </r>
       <r>  -36.5599    1.0000 </r>
       <r>  -36.5400    1.0000 </r>
       <r>  -36.5341    1.0000 </r>
       <r>  -36.4963    1.0000 </r>
       <r>  -36.4940    1.0000 </r>
       <r>  -36.4876    1.0000 </r>
       <r>  -36.4647    1.0000 </r>
       <r>  -36.4610    1.0000 </r>
       <r>  -36.4532    1.0000 </r>
       <r>  -36.4070    1.0000 </r>
       <r>  -36.3999    1.0000 </r>
       <r>  -15.6376    1.0000 </r>
       <r>  -14.4676    1.0000 </r>
       <r>  -14.4049    1.0000 </r>
       <r>  -14.3973    1.0000 </r>
       <r>  -14.3663    1.0000 </r>
       <r>  -14.2889    1.0000 </r>
       <r>  -14.2548    1.0000 </r>
       <r>  -14.2375    1.0000 </r>
       <r>  -13.9376    1.0000 </r>
       <r>  -13.9078    1.0000 </r>
       <r>  -13.8753    1.0000 </r>
       <r>  -13.8248    1.0000 </r>
       <r>  -13.7455    1.0000 </r>
       <r>  -13.7267    1.0000 </r>
       <r>  -13.4919    1.0000 </r>
       <r>  -13.4506    1.0000 </r>
       <r>  -13.4329    1.0000 </r>
       <r>  -13.3606    1.0000 </r>
       <r>   -7.1785    1.0000 </r>
       <r>   -7.0011    1.0000 </r>
       <r>   -6.9270    1.0000 </r>
       <r>   -6.8151    1.0000 </r>
       <r>   -6.7804    1.0000 </r>
       <r>   -6.7379    1.0000 </r>
       <r>   -6.7233    1.0000 </r>
       <r>   -6.6955    1.0000 </r>
       <r>   -6.6695    1.0000 </r>
       <r>   -6.2594    1.0000 </r>
       <r>   -6.1340    1.0000 </r>
       <r>   -5.9112    1.0000 </r>
       <r>   -5.8607    1.0000 </r>
       <r>   -5.7886    1.0000 </r>
       <r>   -5.7544    1.0000 </r>
       <r>   -5.7275    1.0000 </r>
       <r>   -5.6858    1.0000 </r>
       <r>   -5.6595    1.0000 </r>
       <r>   -5.5354    1.0000 </r>
       <r>   -5.4977    1.0000 </r>
       <r>   -5.4799    1.0000 </r>
       <r>   -5.4700    1.0000 </r>
       <r>   -5.4360    1.0000 </r>
       <r>   -5.4214    1.0000 </r>
       <r>   -5.3121    1.0000 </r>
       <r>   -5.1175    1.0000 </r>
       <r>   -5.0894    1.0000 </r>
       <r>   -4.6618    1.0000 </r>
       <r>   -4.5818    1.0000 </r>
       <r>   -4.4323    1.0000 </r>
       <r>   -4.3502    1.0000 </r>
       <r>   -4.3334    1.0000 </r>
       <r>   -4.3007    1.0000 </r>
       <r>   -4.2073    1.0000 </r>
       <r>   -4.1604    1.0000 </r>
       <r>   -4.1000    1.0000 </r>
       <r>   -4.0621    1.0000 </r>
       <r>   -3.8511    1.0000 </r>
       <r>   -3.7946    1.0000 </r>
       <r>   -3.4827    1.0000 </r>
       <r>   -3.4058    1.0000 </r>
       <r>   -3.3824    1.0000 </r>
       <r>   -3.3504    1.0000 </r>
       <r>   -3.2559    1.0000 </r>
       <r>   -3.2343    1.0000 </r>
       <r>   -3.1579    1.0000 </r>
       <r>   -3.0676    1.0000 </r>
       <r>   -3.0453    1.0000 </r>
       <r>   -2.9480    1.0000 </r>
       <r>   -2.9191    1.0000 </r>
       <r>   -2.8772    1.0000 </r>
       <r>   -2.8642    1.0000 </r>
       <r>   -2.8083    1.0000 </r>
       <r>   -2.7551    1.0000 </r>
       <r>   -2.6021    1.0000 </r>
       <r>   -2.5678    1.0000 </r>
       <r>   -2.5486    1.0000 </r>
       <r>   -2.4947    1.0000 </r>
       <r>   -2.4625    1.0000 </r>
       <r>   -2.4215    1.0000 </r>
       <r>   -1.7118    1.0000 </r>
       <r>   -1.6112    1.0000 </r>
       <r>   -1.5184    1.0000 </r>
       <r>    0.0019    0.0000 </r>
       <r>    0.0196    0.0000 </r>
       <r>    0.3026    0.0000 </r>
       <r>    0.4128    0.0000 </r>
       <r>    0.4678    0.0000 </r>
       <r>    0.5149    0.0000 </r>
       <r>    0.5439    0.0000 </r>
       <r>    0.5854    0.0000 </r>
       <r>    0.6296    0.0000 </r>
       <r>    0.6670    0.0000 </r>
       <r>    0.7030    0.0000 </r>
       <r>    0.7766    0.0000 </r>
       <r>    0.8003    0.0000 </r>
       <r>    0.8443    0.0000 </r>
       <r>    1.0456    0.0000 </r>
       <r>    1.0887    0.0000 </r>
       <r>    1.1935    0.0000 </r>
       <r>    1.3026    0.0000 </r>
       <r>    1.3120    0.0000 </r>
       <r>    1.4035    0.0000 </r>
       <r>    1.5018    0.0000 </r>
       <r>    1.6385    0.0000 </r>
       <r>    1.7597    0.0000 </r>
      </set>
      <set comment="kpoint 2">
       <r>  -62.5040    1.0000 </r>
       <r>  -62.4892    1.0000 </r>
       <r>  -62.4865    1.0000 </r>
       <r>  -62.4794    1.0000 </r>
       <r>  -62.4621    1.0000 </r>
       <r>  -62.4511    1.0000 </r>
       <r>  -62.4448    1.0000 </r>
       <r>  -62.4344    1.0000 </r>
       <r>  -62.4314    1.0000 </r>
       <r>  -36.7490    1.0000 </r>
       <r>  -36.7382    1.0000 </r>
       <r>  -36.7332    1.0000 </r>
       <r>  -36.7175    1.0000 </r>
       <r>  -36.7005    1.0000 </r>
       <r>  -36.6733    1.0000 </r>
       <r>  -36.6613    1.0000 </r>
       <r>  -36.6431    1.0000 </r>
       <r>  -36.6377    1.0000 </r>
       <r>  -36.6295    1.0000 </r>
       <r>  -36.6223    1.0000 </r>
       <r>  -36.6003    1.0000 </r>
       <r>  -36.5894    1.0000 </r>
       <r>  -36.5805    1.0000 </r>
       <r>  -36.5746    1.0000 </r>
       <r>  -36.5620    1.0000 </r>
       <r>  -36.5575    1.0000 </r>
       <r>  -36.5405    1.0000 </r>
       <r>  -36.5345    1.0000 </r>
       <r>  -36.5050    1.0000 </r>
       <r>  -36.4937    1.0000 </r>
       <r>  -36.4903    1.0000 </r>
       <r>  -36.4699    1.0000 </r>
       <r>  -36.4674    1.0000 </r>
       <r>  -36.4484    1.0000 </r>
       <r>  -36.4121    1.0000 </r>
       <r>  -36.4048    1.0000 </r>
       <r>  -15.5931    1.0000 </r>
       <r>  -14.6676    1.0000 </r>
       <r>  -14.5105    1.0000 </r>
       <r>  -14.4630    1.0000 </r>
       <r>  -14.3796    1.0000 </r>
       <r>  -14.1761    1.0000 </r>
       <r>  -14.1275    1.0000 </r>
       <r>  -14.0535    1.0000 </r>
       <r>  -13.9966    1.0000 </r>
       <r>  -13.9330    1.0000 </r>
       <r>  -13.8999    1.0000 </r>
       <r>  -13.7604    1.0000 </r>
       <r>  -13.7175    1.0000 </r>
       <r>  -13.6881    1.0000 </r>
       <r>  -13.5238    1.0000 </r>
       <r>  -13.4830    1.0000 </r>
       <r>  -13.4503    1.0000 </r>
       <r>  -13.3748    1.0000 </r>
       <r>   -7.1342    1.0000 </r>
       <r>   -7.0455    1.0000 </r>
       <r>   -6.9122    1.0000 </r>
       <r>   -6.8995    1.0000 </r>
       <r>   -6.8713    1.0000 </r>
       <r>   -6.7836    1.0000 </r>
       <r>   -6.6303    1.0000 </r>
       <r>   -6.5884    1.0000 </r>
       <r>   -6.5294    1.0000 </r>
       <r>   -6.4019    1.0000 </r>
       <r>   -6.3731    1.0000 </r>
       <r>   -6.0835    1.0000 </r>
       <r>   -5.9797    1.0000 </r>
       <r>   -5.9386    1.0000 </r>
       <r>   -5.6258    1.0000 </r>
       <r>   -5.6176    1.0000 </r>
       <r>   -5.5505    1.0000 </r>
       <r>   -5.5185    1.0000 </r>
       <r>   -5.4719    1.0000 </r>
       <r>   -5.4586    1.0000 </r>
       <r>   -5.4315    1.0000 </r>
       <r>   -5.4053    1.0000 </r>
       <r>   -5.3864    1.0000 </r>
       <r>   -5.3329    1.0000 </r>
       <r>   -5.2857    1.0000 </r>
       <r>   -5.0216    1.0000 </r>
       <r>   -4.9387    1.0000 </r>
       <r>   -4.7288    1.0000 </r>
       <r>   -4.6706    1.0000 </r>
       <r>   -4.5395    1.0000 </r>
       <r>   -4.4769    1.0000 </r>
       <r>   -4.4155    1.0000 </r>
       <r>   -4.3607    1.0000 </r>
       <r>   -4.3029    1.0000 </r>
       <r>   -4.1749    1.0000 </r>
       <r>   -4.0611    1.0000 </r>
       <r>   -4.0361    1.0000 </r>
       <r>   -3.7673    1.0000 </r>
       <r>   -3.7264    1.0000 </r>
       <r>   -3.6614    1.0000 </r>
       <r>   -3.4658    1.0000 </r>
       <r>   -3.3687    1.0000 </r>
       <r>   -3.2819    1.0000 </r>
       <r>   -3.2309    1.0000 </r>
       <r>   -3.1754    1.0000 </r>
       <r>   -3.1422    1.0000 </r>
       <r>   -3.1201    1.0000 </r>
       <r>   -3.0714    1.0000 </r>
       <r>   -3.0135    1.0000 </r>
       <r>   -2.9936    1.0000 </r>
       <r>   -2.9476    1.0000 </r>
       <r>   -2.9167    1.0000 </r>
       <r>   -2.8434    1.0000 </r>
       <r>   -2.7036    1.0000 </r>
       <r>   -2.5508    1.0000 </r>
       <r>   -2.4697    1.0000 </r>
       <r>   -2.4479    1.0000 </r>
       <r>   -2.4045    1.0000 </r>
       <r>   -2.3600    1.0000 </r>
       <r>   -2.3042    1.0000 </r>
       <r>   -1.7481    1.0000 </r>
       <r>   -1.6727    1.0000 </r>
       <r>   -1.6070    1.0000 </r>
       <r>    0.0887    0.0000 </r>
       <r>    0.1103    0.0000 </r>
       <r>    0.2451    0.0000 </r>
       <r>    0.3596    0.0000 </r>
       <r>    0.4522    0.0000 </r>
       <r>    0.4954    0.0000 </r>
       <r>    0.5394    0.0000 </r>
       <r>    0.5794    0.0000 </r>
       <r>    0.6370    0.0000 </r>
       <r>    0.6979    0.0000 </r>
       <r>    0.7790    0.0000 </r>
       <r>    0.8475    0.0000 </r>
       <r>    0.8809    0.0000 </r>
       <r>    0.9033    0.0000 </r>
       <r>    1.0320    0.0000 </r>
       <r>    1.0645    0.0000 </r>
       <r>    1.1692    0.0000 </r>
       <r>    1.2496    0.0000 </r>
       <r>    1.3140    0.0000 </r>
       <r>    1.3692    0.0000 </r>
       <r>    1.4248    0.0000 </r>
       <r>    1.5150    0.0000 </r>
       <r>    1.5517    0.0000 </r>
      </set>
      <set comment="kpoint 3">
       <r>  -62.5028    1.0000 </r>
       <r>  -62.4893    1.0000 </r>
       <r>  -62.4876    1.0000 </r>
       <r>  -62.4802    1.0000 </r>
       <r>  -62.4620    1.0000 </r>
       <r>  -62.4508    1.0000 </r>
       <r>  -62.4443    1.0000 </r>
       <r>  -62.4346    1.0000 </r>
       <r>  -62.4313    1.0000 </r>
       <r>  -36.7780    1.0000 </r>
       <r>  -36.7508    1.0000 </r>
       <r>  -36.7459    1.0000 </r>
       <r>  -36.7351    1.0000 </r>
       <r>  -36.7171    1.0000 </r>
       <r>  -36.6511    1.0000 </r>
       <r>  -36.6408    1.0000 </r>
       <r>  -36.6270    1.0000 </r>
       <r>  -36.6124    1.0000 </r>
       <r>  -36.6046    1.0000 </r>
       <r>  -36.5972    1.0000 </r>
       <r>  -36.5904    1.0000 </r>
       <r>  -36.5832    1.0000 </r>
       <r>  -36.5775    1.0000 </r>
       <r>  -36.5716    1.0000 </r>
       <r>  -36.5590    1.0000 </r>
       <r>  -36.5541    1.0000 </r>
       <r>  -36.5418    1.0000 </r>
       <r>  -36.5352    1.0000 </r>
       <r>  -36.5202    1.0000 </r>
       <r>  -36.5080    1.0000 </r>
       <r>  -36.4938    1.0000 </r>
       <r>  -36.4818    1.0000 </r>
       <r>  -36.4759    1.0000 </r>
       <r>  -36.4471    1.0000 </r>
       <r>  -36.4256    1.0000 </r>
       <r>  -36.4112    1.0000 </r>
       <r>  -15.4643    1.0000 </r>
       <r>  -14.9682    1.0000 </r>
       <r>  -14.5877    1.0000 </r>
       <r>  -14.5389    1.0000 </r>
       <r>  -14.3333    1.0000 </r>
       <r>  -14.1285    1.0000 </r>
       <r>  -14.0097    1.0000 </r>
       <r>  -13.9708    1.0000 </r>
       <r>  -13.9381    1.0000 </r>
       <r>  -13.9225    1.0000 </r>
       <r>  -13.8509    1.0000 </r>
       <r>  -13.6862    1.0000 </r>
       <r>  -13.6679    1.0000 </r>
       <r>  -13.6429    1.0000 </r>
       <r>  -13.6036    1.0000 </r>
       <r>  -13.5598    1.0000 </r>
       <r>  -13.4973    1.0000 </r>
       <r>  -13.4073    1.0000 </r>
       <r>   -7.2461    1.0000 </r>
       <r>   -6.9863    1.0000 </r>
       <r>   -6.9435    1.0000 </r>
       <r>   -6.9045    1.0000 </r>
       <r>   -6.7391    1.0000 </r>
       <r>   -6.7100    1.0000 </r>
       <r>   -6.6832    1.0000 </r>
       <r>   -6.6414    1.0000 </r>
       <r>   -6.5303    1.0000 </r>
       <r>   -6.4600    1.0000 </r>
       <r>   -6.4456    1.0000 </r>
       <r>   -6.2748    1.0000 </r>
       <r>   -6.1791    1.0000 </r>
       <r>   -6.1376    1.0000 </r>
       <r>   -5.6107    1.0000 </r>
       <r>   -5.5047    1.0000 </r>
       <r>   -5.4734    1.0000 </r>
       <r>   -5.4384    1.0000 </r>
       <r>   -5.4192    1.0000 </r>
       <r>   -5.3844    1.0000 </r>
       <r>   -5.3558    1.0000 </r>
       <r>   -5.3115    1.0000 </r>
       <r>   -5.2936    1.0000 </r>
       <r>   -5.2074    1.0000 </r>
       <r>   -4.9866    1.0000 </r>
       <r>   -4.8579    1.0000 </r>
       <r>   -4.8244    1.0000 </r>
       <r>   -4.7098    1.0000 </r>
       <r>   -4.6423    1.0000 </r>
       <r>   -4.5984    1.0000 </r>
       <r>   -4.5788    1.0000 </r>
       <r>   -4.5247    1.0000 </r>
       <r>   -4.4989    1.0000 </r>
       <r>   -4.4262    1.0000 </r>
       <r>   -4.3879    1.0000 </r>
       <r>   -4.0689    1.0000 </r>
       <r>   -3.9462    1.0000 </r>
       <r>   -3.8114    1.0000 </r>
       <r>   -3.6090    1.0000 </r>
       <r>   -3.5734    1.0000 </r>
       <r>   -3.5515    1.0000 </r>
       <r>   -3.4751    1.0000 </r>
       <r>   -3.4388    1.0000 </r>
       <r>   -3.4137    1.0000 </r>
       <r>   -3.3517    1.0000 </r>
       <r>   -3.2530    1.0000 </r>
       <r>   -3.2282    1.0000 </r>
       <r>   -3.1952    1.0000 </r>
       <r>   -3.1533    1.0000 </r>
       <r>   -2.8931    1.0000 </r>
       <r>   -2.8519    1.0000 </r>
       <r>   -2.7770    1.0000 </r>
       <r>   -2.6921    1.0000 </r>
       <r>   -2.5839    1.0000 </r>
       <r>   -2.4674    1.0000 </r>
       <r>   -2.3371    1.0000 </r>
       <r>   -2.3131    1.0000 </r>
       <r>   -2.2369    1.0000 </r>
       <r>   -2.2105    1.0000 </r>
       <r>   -2.1237    1.0000 </r>
       <r>   -1.8862    1.0000 </r>
       <r>   -1.7814    1.0000 </r>
       <r>   -1.7538    1.0000 </r>
       <r>    0.1071    0.0000 </r>
       <r>    0.2324    0.0000 </r>
       <r>    0.2765    0.0000 </r>
       <r>    0.3303    0.0000 </r>
       <r>    0.4748    0.0000 </r>
       <r>    0.5018    0.0000 </r>
       <r>    0.5704    0.0000 </r>
       <r>    0.6354    0.0000 </r>
       <r>    0.6987    0.0000 </r>
       <r>    0.7141    0.0000 </r>
       <r>    0.8426    0.0000 </r>
       <r>    0.8940    0.0000 </r>
       <r>    0.9459    0.0000 </r>
       <r>    0.9773    0.0000 </r>
       <r>    1.0098    0.0000 </r>
       <r>    1.0332    0.0000 </r>
       <r>    1.0781    0.0000 </r>
       <r>    1.1751    0.0000 </r>
       <r>    1.1987    0.0000 </r>
       <r>    1.2359    0.0000 </r>
       <r>    1.3620    0.0000 </r>
       <r>    1.4094    0.0000 </r>
       <r>    1.5121    0.0000 </r>
      </set>
      <set comment="kpoint 4">
       <r>  -62.5022    1.0000 </r>
       <r>  -62.4892    1.0000 </r>
       <r>  -62.4883    1.0000 </r>
       <r>  -62.4805    1.0000 </r>
       <r>  -62.4619    1.0000 </r>
       <r>  -62.4506    1.0000 </r>
       <r>  -62.4441    1.0000 </r>
       <r>  -62.4348    1.0000 </r>
       <r>  -62.4312    1.0000 </r>
       <r>  -36.7882    1.0000 </r>
       <r>  -36.7559    1.0000 </r>
       <r>  -36.7503    1.0000 </r>
       <r>  -36.7416    1.0000 </r>
       <r>  -36.7236    1.0000 </r>
       <r>  -36.6418    1.0000 </r>
       <r>  -36.6336    1.0000 </r>
       <r>  -36.6197    1.0000 </r>
       <r>  -36.6107    1.0000 </r>
       <r>  -36.6016    1.0000 </r>
       <r>  -36.5916    1.0000 </r>
       <r>  -36.5808    1.0000 </r>
       <r>  -36.5746    1.0000 </r>
       <r>  -36.5678    1.0000 </r>
       <r>  -36.5593    1.0000 </r>
       <r>  -36.5550    1.0000 </r>
       <r>  -36.5431    1.0000 </r>
       <r>  -36.5421    1.0000 </r>
       <r>  -36.5361    1.0000 </r>
       <r>  -36.5287    1.0000 </r>
       <r>  -36.5212    1.0000 </r>
       <r>  -36.5040    1.0000 </r>
       <r>  -36.4882    1.0000 </r>
       <r>  -36.4819    1.0000 </r>
       <r>  -36.4530    1.0000 </r>
       <r>  -36.4269    1.0000 </r>
       <r>  -36.4154    1.0000 </r>
       <r>  -15.3080    1.0000 </r>
       <r>  -15.1852    1.0000 </r>
       <r>  -14.6156    1.0000 </r>
       <r>  -14.5668    1.0000 </r>
       <r>  -14.2752    1.0000 </r>
       <r>  -14.2069    1.0000 </r>
       <r>  -13.9897    1.0000 </r>
       <r>  -13.9449    1.0000 </r>
       <r>  -13.8663    1.0000 </r>
       <r>  -13.8122    1.0000 </r>
       <r>  -13.7870    1.0000 </r>
       <r>  -13.7295    1.0000 </r>
       <r>  -13.6995    1.0000 </r>
       <r>  -13.6344    1.0000 </r>
       <r>  -13.6050    1.0000 </r>
       <r>  -13.5706    1.0000 </r>
       <r>  -13.5440    1.0000 </r>
       <r>  -13.4266    1.0000 </r>
       <r>   -7.3203    1.0000 </r>
       <r>   -6.9398    1.0000 </r>
       <r>   -6.9044    1.0000 </r>
       <r>   -6.8405    1.0000 </r>
       <r>   -6.7994    1.0000 </r>
       <r>   -6.7943    1.0000 </r>
       <r>   -6.6789    1.0000 </r>
       <r>   -6.5321    1.0000 </r>
       <r>   -6.4696    1.0000 </r>
       <r>   -6.4610    1.0000 </r>
       <r>   -6.4219    1.0000 </r>
       <r>   -6.3731    1.0000 </r>
       <r>   -6.3229    1.0000 </r>
       <r>   -6.2940    1.0000 </r>
       <r>   -5.6321    1.0000 </r>
       <r>   -5.4806    1.0000 </r>
       <r>   -5.4327    1.0000 </r>
       <r>   -5.4205    1.0000 </r>
       <r>   -5.4040    1.0000 </r>
       <r>   -5.3763    1.0000 </r>
       <r>   -5.3215    1.0000 </r>
       <r>   -5.2738    1.0000 </r>
       <r>   -5.1802    1.0000 </r>
       <r>   -4.9707    1.0000 </r>
       <r>   -4.9310    1.0000 </r>
       <r>   -4.8690    1.0000 </r>
       <r>   -4.8446    1.0000 </r>
       <r>   -4.7853    1.0000 </r>
       <r>   -4.6983    1.0000 </r>
       <r>   -4.6802    1.0000 </r>
       <r>   -4.6401    1.0000 </r>
       <r>   -4.5925    1.0000 </r>
       <r>   -4.4669    1.0000 </r>
       <r>   -4.3980    1.0000 </r>
       <r>   -4.0338    1.0000 </r>
       <r>   -4.0215    1.0000 </r>
       <r>   -3.8928    1.0000 </r>
       <r>   -3.8550    1.0000 </r>
       <r>   -3.7563    1.0000 </r>
       <r>   -3.7170    1.0000 </r>
       <r>   -3.6083    1.0000 </r>
       <r>   -3.5713    1.0000 </r>
       <r>   -3.4795    1.0000 </r>
       <r>   -3.4692    1.0000 </r>
       <r>   -3.4038    1.0000 </r>
       <r>   -3.3362    1.0000 </r>
       <r>   -3.3280    1.0000 </r>
       <r>   -3.2852    1.0000 </r>
       <r>   -3.2078    1.0000 </r>
       <r>   -2.7949    1.0000 </r>
       <r>   -2.7450    1.0000 </r>
       <r>   -2.6582    1.0000 </r>
       <r>   -2.6386    1.0000 </r>
       <r>   -2.5464    1.0000 </r>
       <r>   -2.4380    1.0000 </r>
       <r>   -2.3010    1.0000 </r>
       <r>   -2.2440    1.0000 </r>
       <r>   -2.1607    1.0000 </r>
       <r>   -2.0846    1.0000 </r>
       <r>   -2.0246    1.0000 </r>
       <r>   -1.9443    1.0000 </r>
       <r>   -1.8840    1.0000 </r>
       <r>   -1.8524    1.0000 </r>
       <r>    0.0727    0.0000 </r>
       <r>    0.2207    0.0000 </r>
       <r>    0.3403    0.0000 </r>
       <r>    0.3586    0.0000 </r>
       <r>    0.5373    0.0000 </r>
       <r>    0.5404    0.0000 </r>
       <r>    0.5962    0.0000 </r>
       <r>    0.6390    0.0000 </r>
       <r>    0.7011    0.0000 </r>
       <r>    0.7416    0.0000 </r>
       <r>    0.8250    0.0000 </r>
       <r>    0.8812    0.0000 </r>
       <r>    0.9750    0.0000 </r>
       <r>    0.9857    0.0000 </r>
       <r>    1.0058    0.0000 </r>
       <r>    1.0206    0.0000 </r>
       <r>    1.0668    0.0000 </r>
       <r>    1.1352    0.0000 </r>
       <r>    1.1739    0.0000 </r>
       <r>    1.1892    0.0000 </r>
       <r>    1.2251    0.0000 </r>
       <r>    1.2886    0.0000 </r>
       <r>    1.4912    0.0000 </r>
      </set>
      <set comment="kpoint 5">
       <r>  -62.5038    1.0000 </r>
       <r>  -62.4904    1.0000 </r>
       <r>  -62.4860    1.0000 </r>
       <r>  -62.4787    1.0000 </r>
       <r>  -62.4618    1.0000 </r>
       <r>  -62.4524    1.0000 </r>
       <r>  -62.4439    1.0000 </r>
       <r>  -62.4344    1.0000 </r>
       <r>  -62.4314    1.0000 </r>
       <r>  -36.7537    1.0000 </r>
       <r>  -36.7326    1.0000 </r>
       <r>  -36.7292    1.0000 </r>
       <r>  -36.7202    1.0000 </r>
       <r>  -36.7001    1.0000 </r>
       <r>  -36.6751    1.0000 </r>
       <r>  -36.6642    1.0000 </r>
       <r>  -36.6436    1.0000 </r>
       <r>  -36.6370    1.0000 </r>
       <r>  -36.6310    1.0000 </r>
       <r>  -36.6188    1.0000 </r>
       <r>  -36.6013    1.0000 </r>
       <r>  -36.5878    1.0000 </r>
       <r>  -36.5805    1.0000 </r>
       <r>  -36.5745    1.0000 </r>
       <r>  -36.5635    1.0000 </r>
       <r>  -36.5566    1.0000 </r>
       <r>  -36.5401    1.0000 </r>
       <r>  -36.5347    1.0000 </r>
       <r>  -36.5048    1.0000 </r>
       <r>  -36.5004    1.0000 </r>
       <r>  -36.4849    1.0000 </r>
       <r>  -36.4709    1.0000 </r>
       <r>  -36.4643    1.0000 </r>
       <r>  -36.4481    1.0000 </r>
       <r>  -36.4166    1.0000 </r>
       <r>  -36.4021    1.0000 </r>
       <r>  -15.5925    1.0000 </r>
       <r>  -14.6789    1.0000 </r>
       <r>  -14.5100    1.0000 </r>
       <r>  -14.4392    1.0000 </r>
       <r>  -14.3803    1.0000 </r>
       <r>  -14.2008    1.0000 </r>
       <r>  -14.1349    1.0000 </r>
       <r>  -14.0443    1.0000 </r>
       <r>  -14.0039    1.0000 </r>
       <r>  -13.9257    1.0000 </r>
       <r>  -13.8531    1.0000 </r>
       <r>  -13.8035    1.0000 </r>
       <r>  -13.7318    1.0000 </r>
       <r>  -13.6651    1.0000 </r>
       <r>  -13.5245    1.0000 </r>
       <r>  -13.4825    1.0000 </r>
       <r>  -13.4491    1.0000 </r>
       <r>  -13.3785    1.0000 </r>
       <r>   -7.1299    1.0000 </r>
       <r>   -7.0541    1.0000 </r>
       <r>   -6.9513    1.0000 </r>
       <r>   -6.8977    1.0000 </r>
       <r>   -6.8352    1.0000 </r>
       <r>   -6.7671    1.0000 </r>
       <r>   -6.6272    1.0000 </r>
       <r>   -6.5923    1.0000 </r>
       <r>   -6.5409    1.0000 </r>
       <r>   -6.4396    1.0000 </r>
       <r>   -6.3227    1.0000 </r>
       <r>   -6.1012    1.0000 </r>
       <r>   -5.9566    1.0000 </r>
       <r>   -5.9417    1.0000 </r>
       <r>   -5.6450    1.0000 </r>
       <r>   -5.5960    1.0000 </r>
       <r>   -5.5410    1.0000 </r>
       <r>   -5.5254    1.0000 </r>
       <r>   -5.4814    1.0000 </r>
       <r>   -5.4590    1.0000 </r>
       <r>   -5.4385    1.0000 </r>
       <r>   -5.4096    1.0000 </r>
       <r>   -5.3951    1.0000 </r>
       <r>   -5.3370    1.0000 </r>
       <r>   -5.2682    1.0000 </r>
       <r>   -5.0273    1.0000 </r>
       <r>   -4.9394    1.0000 </r>
       <r>   -4.7461    1.0000 </r>
       <r>   -4.6529    1.0000 </r>
       <r>   -4.5437    1.0000 </r>
       <r>   -4.4745    1.0000 </r>
       <r>   -4.4212    1.0000 </r>
       <r>   -4.3327    1.0000 </r>
       <r>   -4.2909    1.0000 </r>
       <r>   -4.1804    1.0000 </r>
       <r>   -4.0996    1.0000 </r>
       <r>   -4.0279    1.0000 </r>
       <r>   -3.7712    1.0000 </r>
       <r>   -3.7467    1.0000 </r>
       <r>   -3.6281    1.0000 </r>
       <r>   -3.4549    1.0000 </r>
       <r>   -3.3456    1.0000 </r>
       <r>   -3.2954    1.0000 </r>
       <r>   -3.2209    1.0000 </r>
       <r>   -3.1719    1.0000 </r>
       <r>   -3.1581    1.0000 </r>
       <r>   -3.1444    1.0000 </r>
       <r>   -3.0956    1.0000 </r>
       <r>   -3.0433    1.0000 </r>
       <r>   -3.0209    1.0000 </r>
       <r>   -2.9461    1.0000 </r>
       <r>   -2.8848    1.0000 </r>
       <r>   -2.8082    1.0000 </r>
       <r>   -2.6633    1.0000 </r>
       <r>   -2.5288    1.0000 </r>
       <r>   -2.5224    1.0000 </r>
       <r>   -2.4359    1.0000 </r>
       <r>   -2.4200    1.0000 </r>
       <r>   -2.3635    1.0000 </r>
       <r>   -2.2849    1.0000 </r>
       <r>   -1.7466    1.0000 </r>
       <r>   -1.6745    1.0000 </r>
       <r>   -1.6033    1.0000 </r>
       <r>    0.0752    0.0000 </r>
       <r>    0.1181    0.0000 </r>
       <r>    0.2795    0.0000 </r>
       <r>    0.3290    0.0000 </r>
       <r>    0.4227    0.0000 </r>
       <r>    0.4892    0.0000 </r>
       <r>    0.5449    0.0000 </r>
       <r>    0.6082    0.0000 </r>
       <r>    0.6289    0.0000 </r>
       <r>    0.7186    0.0000 </r>
       <r>    0.7569    0.0000 </r>
       <r>    0.8444    0.0000 </r>
       <r>    0.8729    0.0000 </r>
       <r>    0.9063    0.0000 </r>
       <r>    1.0003    0.0000 </r>
       <r>    1.0986    0.0000 </r>
       <r>    1.1880    0.0000 </r>
       <r>    1.2265    0.0000 </r>
       <r>    1.3207    0.0000 </r>
       <r>    1.3785    0.0000 </r>
       <r>    1.4324    0.0000 </r>
       <r>    1.4660    0.0000 </r>
       <r>    1.5666    0.0000 </r>
      </set>
      <set comment="kpoint 6">
       <r>  -62.5029    1.0000 </r>
       <r>  -62.4905    1.0000 </r>
       <r>  -62.4868    1.0000 </r>
       <r>  -62.4793    1.0000 </r>
       <r>  -62.4616    1.0000 </r>
       <r>  -62.4523    1.0000 </r>
       <r>  -62.4435    1.0000 </r>
       <r>  -62.4346    1.0000 </r>
       <r>  -62.4313    1.0000 </r>
       <r>  -36.7673    1.0000 </r>
       <r>  -36.7604    1.0000 </r>
       <r>  -36.7425    1.0000 </r>
       <r>  -36.7255    1.0000 </r>
       <r>  -36.6967    1.0000 </r>
       <r>  -36.6872    1.0000 </r>
       <r>  -36.6327    1.0000 </r>
       <r>  -36.6241    1.0000 </r>
       <r>  -36.6154    1.0000 </r>
       <r>  -36.6072    1.0000 </r>
       <r>  -36.6037    1.0000 </r>
       <r>  -36.5962    1.0000 </r>
       <r>  -36.5913    1.0000 </r>
       <r>  -36.5785    1.0000 </r>
       <r>  -36.5740    1.0000 </r>
       <r>  -36.5612    1.0000 </r>
       <r>  -36.5541    1.0000 </r>
       <r>  -36.5410    1.0000 </r>
       <r>  -36.5353    1.0000 </r>
       <r>  -36.5143    1.0000 </r>
       <r>  -36.5044    1.0000 </r>
       <r>  -36.4942    1.0000 </r>
       <r>  -36.4805    1.0000 </r>
       <r>  -36.4677    1.0000 </r>
       <r>  -36.4471    1.0000 </r>
       <r>  -36.4264    1.0000 </r>
       <r>  -36.4077    1.0000 </r>
       <r>  -15.5053    1.0000 </r>
       <r>  -14.8199    1.0000 </r>
       <r>  -14.7676    1.0000 </r>
       <r>  -14.3579    1.0000 </r>
       <r>  -14.2925    1.0000 </r>
       <r>  -14.2068    1.0000 </r>
       <r>  -14.0599    1.0000 </r>
       <r>  -14.0337    1.0000 </r>
       <r>  -13.9457    1.0000 </r>
       <r>  -13.9162    1.0000 </r>
       <r>  -13.8189    1.0000 </r>
       <r>  -13.7411    1.0000 </r>
       <r>  -13.6736    1.0000 </r>
       <r>  -13.6363    1.0000 </r>
       <r>  -13.5935    1.0000 </r>
       <r>  -13.5320    1.0000 </r>
       <r>  -13.4791    1.0000 </r>
       <r>  -13.4031    1.0000 </r>
       <r>   -7.1531    1.0000 </r>
       <r>   -7.1013    1.0000 </r>
       <r>   -7.0147    1.0000 </r>
       <r>   -6.7942    1.0000 </r>
       <r>   -6.7835    1.0000 </r>
       <r>   -6.7002    1.0000 </r>
       <r>   -6.6645    1.0000 </r>
       <r>   -6.6155    1.0000 </r>
       <r>   -6.5562    1.0000 </r>
       <r>   -6.4688    1.0000 </r>
       <r>   -6.4402    1.0000 </r>
       <r>   -6.2399    1.0000 </r>
       <r>   -6.1953    1.0000 </r>
       <r>   -5.8242    1.0000 </r>
       <r>   -5.8075    1.0000 </r>
       <r>   -5.5840    1.0000 </r>
       <r>   -5.5145    1.0000 </r>
       <r>   -5.4542    1.0000 </r>
       <r>   -5.4381    1.0000 </r>
       <r>   -5.3814    1.0000 </r>
       <r>   -5.3566    1.0000 </r>
       <r>   -5.3179    1.0000 </r>
       <r>   -5.2511    1.0000 </r>
       <r>   -5.1548    1.0000 </r>
       <r>   -5.1158    1.0000 </r>
       <r>   -4.9184    1.0000 </r>
       <r>   -4.8307    1.0000 </r>
       <r>   -4.7537    1.0000 </r>
       <r>   -4.6954    1.0000 </r>
       <r>   -4.6477    1.0000 </r>
       <r>   -4.5511    1.0000 </r>
       <r>   -4.5016    1.0000 </r>
       <r>   -4.4635    1.0000 </r>
       <r>   -4.3486    1.0000 </r>
       <r>   -4.1869    1.0000 </r>
       <r>   -4.0755    1.0000 </r>
       <r>   -4.0027    1.0000 </r>
       <r>   -3.9424    1.0000 </r>
       <r>   -3.6760    1.0000 </r>
       <r>   -3.5574    1.0000 </r>
       <r>   -3.4921    1.0000 </r>
       <r>   -3.4657    1.0000 </r>
       <r>   -3.4200    1.0000 </r>
       <r>   -3.3589    1.0000 </r>
       <r>   -3.2992    1.0000 </r>
       <r>   -3.2371    1.0000 </r>
       <r>   -3.1986    1.0000 </r>
       <r>   -3.0792    1.0000 </r>
       <r>   -3.0481    1.0000 </r>
       <r>   -2.9113    1.0000 </r>
       <r>   -2.8492    1.0000 </r>
       <r>   -2.8258    1.0000 </r>
       <r>   -2.7978    1.0000 </r>
       <r>   -2.6791    1.0000 </r>
       <r>   -2.4529    1.0000 </r>
       <r>   -2.4179    1.0000 </r>
       <r>   -2.3470    1.0000 </r>
       <r>   -2.2674    1.0000 </r>
       <r>   -2.2245    1.0000 </r>
       <r>   -2.1480    1.0000 </r>
       <r>   -1.8658    1.0000 </r>
       <r>   -1.7388    1.0000 </r>
       <r>   -1.7036    1.0000 </r>
       <r>    0.1426    0.0000 </r>
       <r>    0.2131    0.0000 </r>
       <r>    0.2496    0.0000 </r>
       <r>    0.3221    0.0000 </r>
       <r>    0.4274    0.0000 </r>
       <r>    0.4839    0.0000 </r>
       <r>    0.5528    0.0000 </r>
       <r>    0.6136    0.0000 </r>
       <r>    0.7010    0.0000 </r>
       <r>    0.7491    0.0000 </r>
       <r>    0.8050    0.0000 </r>
       <r>    0.8874    0.0000 </r>
       <r>    0.9157    0.0000 </r>
       <r>    0.9653    0.0000 </r>
       <r>    0.9996    0.0000 </r>
       <r>    1.0180    0.0000 </r>
       <r>    1.0908    0.0000 </r>
       <r>    1.1881    0.0000 </r>
       <r>    1.2558    0.0000 </r>
       <r>    1.3366    0.0000 </r>
       <r>    1.3645    0.0000 </r>
       <r>    1.4450    0.0000 </r>
       <r>    1.5118    0.0000 </r>
      </set>
      <set comment="kpoint 7">
       <r>  -62.5019    1.0000 </r>
       <r>  -62.4908    1.0000 </r>
       <r>  -62.4876    1.0000 </r>
       <r>  -62.4797    1.0000 </r>
       <r>  -62.4617    1.0000 </r>
       <r>  -62.4518    1.0000 </r>
       <r>  -62.4432    1.0000 </r>
       <r>  -62.4348    1.0000 </r>
       <r>  -62.4313    1.0000 </r>
       <r>  -36.7833    1.0000 </r>
       <r>  -36.7685    1.0000 </r>
       <r>  -36.7571    1.0000 </r>
       <r>  -36.7281    1.0000 </r>
       <r>  -36.7100    1.0000 </r>
       <r>  -36.6743    1.0000 </r>
       <r>  -36.6260    1.0000 </r>
       <r>  -36.6115    1.0000 </r>
       <r>  -36.6032    1.0000 </r>
       <r>  -36.5959    1.0000 </r>
       <r>  -36.5937    1.0000 </r>
       <r>  -36.5788    1.0000 </r>
       <r>  -36.5755    1.0000 </r>
       <r>  -36.5691    1.0000 </r>
       <r>  -36.5613    1.0000 </r>
       <r>  -36.5560    1.0000 </r>
       <r>  -36.5508    1.0000 </r>
       <r>  -36.5421    1.0000 </r>
       <r>  -36.5357    1.0000 </r>
       <r>  -36.5317    1.0000 </r>
       <r>  -36.5112    1.0000 </r>
       <r>  -36.5061    1.0000 </r>
       <r>  -36.4912    1.0000 </r>
       <r>  -36.4830    1.0000 </r>
       <r>  -36.4476    1.0000 </r>
       <r>  -36.4293    1.0000 </r>
       <r>  -36.4157    1.0000 </r>
       <r>  -15.3433    1.0000 </r>
       <r>  -15.0750    1.0000 </r>
       <r>  -14.8593    1.0000 </r>
       <r>  -14.3209    1.0000 </r>
       <r>  -14.2809    1.0000 </r>
       <r>  -14.1579    1.0000 </r>
       <r>  -14.0793    1.0000 </r>
       <r>  -14.0051    1.0000 </r>
       <r>  -13.8616    1.0000 </r>
       <r>  -13.8359    1.0000 </r>
       <r>  -13.7938    1.0000 </r>
       <r>  -13.7038    1.0000 </r>
       <r>  -13.6724    1.0000 </r>
       <r>  -13.6460    1.0000 </r>
       <r>  -13.6011    1.0000 </r>
       <r>  -13.5766    1.0000 </r>
       <r>  -13.5278    1.0000 </r>
       <r>  -13.4264    1.0000 </r>
       <r>   -7.2596    1.0000 </r>
       <r>   -7.1004    1.0000 </r>
       <r>   -6.9553    1.0000 </r>
       <r>   -6.8508    1.0000 </r>
       <r>   -6.7338    1.0000 </r>
       <r>   -6.6731    1.0000 </r>
       <r>   -6.6330    1.0000 </r>
       <r>   -6.5892    1.0000 </r>
       <r>   -6.5349    1.0000 </r>
       <r>   -6.4636    1.0000 </r>
       <r>   -6.4344    1.0000 </r>
       <r>   -6.3711    1.0000 </r>
       <r>   -6.3313    1.0000 </r>
       <r>   -6.0989    1.0000 </r>
       <r>   -5.6996    1.0000 </r>
       <r>   -5.6029    1.0000 </r>
       <r>   -5.5293    1.0000 </r>
       <r>   -5.4851    1.0000 </r>
       <r>   -5.3629    1.0000 </r>
       <r>   -5.3247    1.0000 </r>
       <r>   -5.2757    1.0000 </r>
       <r>   -5.2380    1.0000 </r>
       <r>   -5.0926    1.0000 </r>
       <r>   -5.0136    1.0000 </r>
       <r>   -4.9571    1.0000 </r>
       <r>   -4.9118    1.0000 </r>
       <r>   -4.8249    1.0000 </r>
       <r>   -4.7656    1.0000 </r>
       <r>   -4.7060    1.0000 </r>
       <r>   -4.6660    1.0000 </r>
       <r>   -4.6185    1.0000 </r>
       <r>   -4.5393    1.0000 </r>
       <r>   -4.3917    1.0000 </r>
       <r>   -4.3368    1.0000 </r>
       <r>   -4.2748    1.0000 </r>
       <r>   -4.0129    1.0000 </r>
       <r>   -3.9127    1.0000 </r>
       <r>   -3.8456    1.0000 </r>
       <r>   -3.7829    1.0000 </r>
       <r>   -3.6743    1.0000 </r>
       <r>   -3.6164    1.0000 </r>
       <r>   -3.5733    1.0000 </r>
       <r>   -3.5165    1.0000 </r>
       <r>   -3.4523    1.0000 </r>
       <r>   -3.4000    1.0000 </r>
       <r>   -3.3628    1.0000 </r>
       <r>   -3.2860    1.0000 </r>
       <r>   -3.2136    1.0000 </r>
       <r>   -3.0854    1.0000 </r>
       <r>   -2.8925    1.0000 </r>
       <r>   -2.7885    1.0000 </r>
       <r>   -2.6872    1.0000 </r>
       <r>   -2.6544    1.0000 </r>
       <r>   -2.5687    1.0000 </r>
       <r>   -2.4044    1.0000 </r>
       <r>   -2.3132    1.0000 </r>
       <r>   -2.2222    1.0000 </r>
       <r>   -2.1726    1.0000 </r>
       <r>   -2.0798    1.0000 </r>
       <r>   -2.0094    1.0000 </r>
       <r>   -1.9912    1.0000 </r>
       <r>   -1.8467    1.0000 </r>
       <r>   -1.8041    1.0000 </r>
       <r>    0.1289    0.0000 </r>
       <r>    0.2538    0.0000 </r>
       <r>    0.3148    0.0000 </r>
       <r>    0.3632    0.0000 </r>
       <r>    0.4842    0.0000 </r>
       <r>    0.5152    0.0000 </r>
       <r>    0.5994    0.0000 </r>
       <r>    0.6161    0.0000 </r>
       <r>    0.7034    0.0000 </r>
       <r>    0.7696    0.0000 </r>
       <r>    0.7961    0.0000 </r>
       <r>    0.8702    0.0000 </r>
       <r>    0.9057    0.0000 </r>
       <r>    0.9482    0.0000 </r>
       <r>    0.9572    0.0000 </r>
       <r>    0.9925    0.0000 </r>
       <r>    1.1014    0.0000 </r>
       <r>    1.1367    0.0000 </r>
       <r>    1.1666    0.0000 </r>
       <r>    1.2134    0.0000 </r>
       <r>    1.2887    0.0000 </r>
       <r>    1.3558    0.0000 </r>
       <r>    1.4369    0.0000 </r>
      </set>
      <set comment="kpoint 8">
       <r>  -62.5018    1.0000 </r>
       <r>  -62.4911    1.0000 </r>
       <r>  -62.4874    1.0000 </r>
       <r>  -62.4796    1.0000 </r>
       <r>  -62.4620    1.0000 </r>
       <r>  -62.4514    1.0000 </r>
       <r>  -62.4434    1.0000 </r>
       <r>  -62.4348    1.0000 </r>
       <r>  -62.4313    1.0000 </r>
       <r>  -36.7833    1.0000 </r>
       <r>  -36.7701    1.0000 </r>
       <r>  -36.7557    1.0000 </r>
       <r>  -36.7251    1.0000 </r>
       <r>  -36.7138    1.0000 </r>
       <r>  -36.6723    1.0000 </r>
       <r>  -36.6259    1.0000 </r>
       <r>  -36.6111    1.0000 </r>
       <r>  -36.6043    1.0000 </r>
       <r>  -36.5981    1.0000 </r>
       <r>  -36.5907    1.0000 </r>
       <r>  -36.5790    1.0000 </r>
       <r>  -36.5753    1.0000 </r>
       <r>  -36.5696    1.0000 </r>
       <r>  -36.5617    1.0000 </r>
       <r>  -36.5555    1.0000 </r>
       <r>  -36.5510    1.0000 </r>
       <r>  -36.5424    1.0000 </r>
       <r>  -36.5353    1.0000 </r>
       <r>  -36.5282    1.0000 </r>
       <r>  -36.5219    1.0000 </r>
       <r>  -36.5009    1.0000 </r>
       <r>  -36.4901    1.0000 </r>
       <r>  -36.4837    1.0000 </r>
       <r>  -36.4460    1.0000 </r>
       <r>  -36.4280    1.0000 </r>
       <r>  -36.4174    1.0000 </r>
       <r>  -15.3437    1.0000 </r>
       <r>  -15.0736    1.0000 </r>
       <r>  -14.8604    1.0000 </r>
       <r>  -14.3382    1.0000 </r>
       <r>  -14.2560    1.0000 </r>
       <r>  -14.1723    1.0000 </r>
       <r>  -14.0784    1.0000 </r>
       <r>  -13.9928    1.0000 </r>
       <r>  -13.8637    1.0000 </r>
       <r>  -13.8257    1.0000 </r>
       <r>  -13.7886    1.0000 </r>
       <r>  -13.7301    1.0000 </r>
       <r>  -13.6827    1.0000 </r>
       <r>  -13.6454    1.0000 </r>
       <r>  -13.5893    1.0000 </r>
       <r>  -13.5666    1.0000 </r>
       <r>  -13.5369    1.0000 </r>
       <r>  -13.4229    1.0000 </r>
       <r>   -7.2588    1.0000 </r>
       <r>   -7.0976    1.0000 </r>
       <r>   -6.9570    1.0000 </r>
       <r>   -6.8430    1.0000 </r>
       <r>   -6.7476    1.0000 </r>
       <r>   -6.6812    1.0000 </r>
       <r>   -6.6363    1.0000 </r>
       <r>   -6.5626    1.0000 </r>
       <r>   -6.5313    1.0000 </r>
       <r>   -6.4631    1.0000 </r>
       <r>   -6.4421    1.0000 </r>
       <r>   -6.3832    1.0000 </r>
       <r>   -6.3351    1.0000 </r>
       <r>   -6.0891    1.0000 </r>
       <r>   -5.7062    1.0000 </r>
       <r>   -5.5998    1.0000 </r>
       <r>   -5.5236    1.0000 </r>
       <r>   -5.5029    1.0000 </r>
       <r>   -5.3595    1.0000 </r>
       <r>   -5.3151    1.0000 </r>
       <r>   -5.2934    1.0000 </r>
       <r>   -5.2171    1.0000 </r>
       <r>   -5.0929    1.0000 </r>
       <r>   -5.0307    1.0000 </r>
       <r>   -4.9483    1.0000 </r>
       <r>   -4.8869    1.0000 </r>
       <r>   -4.8438    1.0000 </r>
       <r>   -4.7648    1.0000 </r>
       <r>   -4.7046    1.0000 </r>
       <r>   -4.6797    1.0000 </r>
       <r>   -4.6105    1.0000 </r>
       <r>   -4.5343    1.0000 </r>
       <r>   -4.4019    1.0000 </r>
       <r>   -4.3380    1.0000 </r>
       <r>   -4.2695    1.0000 </r>
       <r>   -4.0142    1.0000 </r>
       <r>   -3.8882    1.0000 </r>
       <r>   -3.8104    1.0000 </r>
       <r>   -3.7966    1.0000 </r>
       <r>   -3.7026    1.0000 </r>
       <r>   -3.5939    1.0000 </r>
       <r>   -3.5685    1.0000 </r>
       <r>   -3.4862    1.0000 </r>
       <r>   -3.4730    1.0000 </r>
       <r>   -3.4368    1.0000 </r>
       <r>   -3.3516    1.0000 </r>
       <r>   -3.3271    1.0000 </r>
       <r>   -3.2117    1.0000 </r>
       <r>   -3.0680    1.0000 </r>
       <r>   -2.8909    1.0000 </r>
       <r>   -2.7923    1.0000 </r>
       <r>   -2.7027    1.0000 </r>
       <r>   -2.6393    1.0000 </r>
       <r>   -2.5735    1.0000 </r>
       <r>   -2.3902    1.0000 </r>
       <r>   -2.2713    1.0000 </r>
       <r>   -2.2578    1.0000 </r>
       <r>   -2.1638    1.0000 </r>
       <r>   -2.1310    1.0000 </r>
       <r>   -2.0352    1.0000 </r>
       <r>   -1.9133    1.0000 </r>
       <r>   -1.8664    1.0000 </r>
       <r>   -1.8138    1.0000 </r>
       <r>    0.1268    0.0000 </r>
       <r>    0.2672    0.0000 </r>
       <r>    0.3171    0.0000 </r>
       <r>    0.3730    0.0000 </r>
       <r>    0.4928    0.0000 </r>
       <r>    0.5397    0.0000 </r>
       <r>    0.5683    0.0000 </r>
       <r>    0.6326    0.0000 </r>
       <r>    0.6765    0.0000 </r>
       <r>    0.7419    0.0000 </r>
       <r>    0.8096    0.0000 </r>
       <r>    0.8588    0.0000 </r>
       <r>    0.8829    0.0000 </r>
       <r>    0.9392    0.0000 </r>
       <r>    0.9961    0.0000 </r>
       <r>    1.0196    0.0000 </r>
       <r>    1.1012    0.0000 </r>
       <r>    1.1354    0.0000 </r>
       <r>    1.1625    0.0000 </r>
       <r>    1.2184    0.0000 </r>
       <r>    1.2563    0.0000 </r>
       <r>    1.3744    0.0000 </r>
       <r>    1.4153    0.0000 </r>
      </set>
      <set comment="kpoint 9">
       <r>  -62.5028    1.0000 </r>
       <r>  -62.4910    1.0000 </r>
       <r>  -62.4865    1.0000 </r>
       <r>  -62.4790    1.0000 </r>
       <r>  -62.4623    1.0000 </r>
       <r>  -62.4515    1.0000 </r>
       <r>  -62.4438    1.0000 </r>
       <r>  -62.4345    1.0000 </r>
       <r>  -62.4314    1.0000 </r>
       <r>  -36.7684    1.0000 </r>
       <r>  -36.7610    1.0000 </r>
       <r>  -36.7434    1.0000 </r>
       <r>  -36.7192    1.0000 </r>
       <r>  -36.7034    1.0000 </r>
       <r>  -36.6824    1.0000 </r>
       <r>  -36.6325    1.0000 </r>
       <r>  -36.6246    1.0000 </r>
       <r>  -36.6155    1.0000 </r>
       <r>  -36.6102    1.0000 </r>
       <r>  -36.6035    1.0000 </r>
       <r>  -36.5937    1.0000 </r>
       <r>  -36.5917    1.0000 </r>
       <r>  -36.5781    1.0000 </r>
       <r>  -36.5743    1.0000 </r>
[...]
       <r>   -5.2796    1.0000 </r>
       <r>   -5.1450    1.0000 </r>
       <r>   -4.9935    1.0000 </r>
       <r>   -4.9357    1.0000 </r>
       <r>   -4.8783    1.0000 </r>
       <r>   -4.8465    1.0000 </r>
       <r>   -4.7953    1.0000 </r>
       <r>   -4.7398    1.0000 </r>
       <r>   -4.7048    1.0000 </r>
       <r>   -4.6526    1.0000 </r>
       <r>   -4.5476    1.0000 </r>
       <r>   -4.4642    1.0000 </r>
       <r>   -4.3201    1.0000 </r>
       <r>   -4.1178    1.0000 </r>
       <r>   -4.0027    1.0000 </r>
       <r>   -3.9334    1.0000 </r>
       <r>   -3.7955    1.0000 </r>
       <r>   -3.7049    1.0000 </r>
       <r>   -3.6768    1.0000 </r>
       <r>   -3.6247    1.0000 </r>
       <r>   -3.5463    1.0000 </r>
       <r>   -3.5355    1.0000 </r>
       <r>   -3.4515    1.0000 </r>
       <r>   -3.4077    1.0000 </r>
       <r>   -3.3548    1.0000 </r>
       <r>   -3.3285    1.0000 </r>
       <r>   -3.3143    1.0000 </r>
       <r>   -3.2569    1.0000 </r>
       <r>   -2.8081    1.0000 </r>
       <r>   -2.6959    1.0000 </r>
       <r>   -2.6879    1.0000 </r>
       <r>   -2.5874    1.0000 </r>
       <r>   -2.5568    1.0000 </r>
       <r>   -2.4147    1.0000 </r>
       <r>   -2.3405    1.0000 </r>
       <r>   -2.2768    1.0000 </r>
       <r>   -2.1763    1.0000 </r>
       <r>   -2.0478    1.0000 </r>
       <r>   -2.0006    1.0000 </r>
       <r>   -1.9496    1.0000 </r>
       <r>   -1.8823    1.0000 </r>
       <r>   -1.8467    1.0000 </r>
       <r>    0.0858    0.0000 </r>
       <r>    0.2792    0.0000 </r>
       <r>    0.3424    0.0000 </r>
       <r>    0.4067    0.0000 </r>
       <r>    0.4372    0.0000 </r>
       <r>    0.5553    0.0000 </r>
       <r>    0.5694    0.0000 </r>
       <r>    0.6354    0.0000 </r>
       <r>    0.6647    0.0000 </r>
       <r>    0.7763    0.0000 </r>
       <r>    0.8243    0.0000 </r>
       <r>    0.8603    0.0000 </r>
       <r>    0.8985    0.0000 </r>
       <r>    0.9537    0.0000 </r>
       <r>    0.9832    0.0000 </r>
       <r>    1.0354    0.0000 </r>
       <r>    1.0704    0.0000 </r>
       <r>    1.1300    0.0000 </r>
       <r>    1.1725    0.0000 </r>
       <r>    1.1899    0.0000 </r>
       <r>    1.2750    0.0000 </r>
       <r>    1.2918    0.0000 </r>
       <r>    1.5165    0.0000 </r>
      </set>
     </set>
    </set>
   </array>
  </eigenvalues>
  <separator name="orbital magnetization" >
   <v name="MAGDIPOLOUT">      0.00000000      0.00000000      0.00000000</v>
  </separator>
  <dos>
   <i name="efermi">     -1.12416753 </i>
   <total>
    <array>
     <dimension dim="1">gridpoints</dimension>
     <dimension dim="2">spin</dimension>
     <field>energy</field>
     <field>total</field>
     <field>integrated</field>
     <set>
      <set comment="spin 1">
       <r>   -65.7177     0.0000     0.0000 </r>
       <r>   -65.4821     0.0000     0.0000 </r>
       <r>   -65.2465     0.0000     0.0000 </r>
       <r>   -65.0108     0.0000     0.0000 </r>
       <r>   -64.7752     0.0000     0.0000 </r>
       <r>   -64.5396     0.0000     0.0000 </r>
       <r>   -64.3039     0.0000     0.0000 </r>
       <r>   -64.0683     0.0000     0.0000 </r>
       <r>   -63.8326     0.0000     0.0000 </r>
       <r>   -63.5970     0.0000     0.0000 </r>
       <r>   -63.3614     0.0000     0.0000 </r>
       <r>   -63.1257     0.0000     0.0000 </r>
       <r>   -62.8901     0.0000     0.0000 </r>
       <r>   -62.6545     0.0001     0.0000 </r>
       <r>   -62.4188    65.1980    15.3630 </r>
       <r>   -62.1832    11.1911    18.0000 </r>
       <r>   -61.9476     0.0000    18.0000 </r>
       <r>   -61.7119     0.0000    18.0000 </r>
       <r>   -61.4763     0.0000    18.0000 </r>
       <r>   -61.2407     0.0000    18.0000 </r>
       <r>   -61.0050     0.0000    18.0000 </r>
       <r>   -60.7694     0.0000    18.0000 </r>
       <r>   -60.5337     0.0000    18.0000 </r>
       <r>   -60.2981     0.0000    18.0000 </r>
       <r>   -60.0625     0.0000    18.0000 </r>
       <r>   -59.8268     0.0000    18.0000 </r>
       <r>   -59.5912     0.0000    18.0000 </r>
       <r>   -59.3556     0.0000    18.0000 </r>
       <r>   -59.1199     0.0000    18.0000 </r>
       <r>   -58.8843     0.0000    18.0000 </r>
       <r>   -58.6487     0.0000    18.0000 </r>
       <r>   -58.4130     0.0000    18.0000 </r>
       <r>   -58.1774     0.0000    18.0000 </r>
       <r>   -57.9418     0.0000    18.0000 </r>
       <r>   -57.7061     0.0000    18.0000 </r>
       <r>   -57.4705     0.0000    18.0000 </r>
       <r>   -57.2349     0.0000    18.0000 </r>
       <r>   -56.9992     0.0000    18.0000 </r>
       <r>   -56.7636     0.0000    18.0000 </r>
       <r>   -56.5279     0.0000    18.0000 </r>
       <r>   -56.2923     0.0000    18.0000 </r>
       <r>   -56.0567     0.0000    18.0000 </r>
       <r>   -55.8210     0.0000    18.0000 </r>
       <r>   -55.5854     0.0000    18.0000 </r>
       <r>   -55.3498     0.0000    18.0000 </r>
       <r>   -55.1141     0.0000    18.0000 </r>
       <r>   -54.8785     0.0000    18.0000 </r>
       <r>   -54.6429     0.0000    18.0000 </r>
       <r>   -54.4072     0.0000    18.0000 </r>
       <r>   -54.1716     0.0000    18.0000 </r>
       <r>   -53.9360     0.0000    18.0000 </r>
       <r>   -53.7003     0.0000    18.0000 </r>
       <r>   -53.4647     0.0000    18.0000 </r>
       <r>   -53.2291     0.0000    18.0000 </r>
       <r>   -52.9934     0.0000    18.0000 </r>
       <r>   -52.7578     0.0000    18.0000 </r>
       <r>   -52.5221     0.0000    18.0000 </r>
       <r>   -52.2865     0.0000    18.0000 </r>
       <r>   -52.0509     0.0000    18.0000 </r>
       <r>   -51.8152     0.0000    18.0000 </r>
       <r>   -51.5796     0.0000    18.0000 </r>
       <r>   -51.3440     0.0000    18.0000 </r>
       <r>   -51.1083     0.0000    18.0000 </r>
       <r>   -50.8727     0.0000    18.0000 </r>
       <r>   -50.6371     0.0000    18.0000 </r>
       <r>   -50.4014     0.0000    18.0000 </r>
       <r>   -50.1658     0.0000    18.0000 </r>
       <r>   -49.9302     0.0000    18.0000 </r>
       <r>   -49.6945     0.0000    18.0000 </r>
       <r>   -49.4589     0.0000    18.0000 </r>
       <r>   -49.2232     0.0000    18.0000 </r>
       <r>   -48.9876     0.0000    18.0000 </r>
       <r>   -48.7520     0.0000    18.0000 </r>
       <r>   -48.5163     0.0000    18.0000 </r>
       <r>   -48.2807     0.0000    18.0000 </r>
       <r>   -48.0451     0.0000    18.0000 </r>
       <r>   -47.8094     0.0000    18.0000 </r>
       <r>   -47.5738     0.0000    18.0000 </r>
       <r>   -47.3382     0.0000    18.0000 </r>
       <r>   -47.1025     0.0000    18.0000 </r>
       <r>   -46.8669     0.0000    18.0000 </r>
       <r>   -46.6313     0.0000    18.0000 </r>
       <r>   -46.3956     0.0000    18.0000 </r>
       <r>   -46.1600     0.0000    18.0000 </r>
       <r>   -45.9244     0.0000    18.0000 </r>
       <r>   -45.6887     0.0000    18.0000 </r>
       <r>   -45.4531     0.0000    18.0000 </r>
       <r>   -45.2174     0.0000    18.0000 </r>
       <r>   -44.9818     0.0000    18.0000 </r>
       <r>   -44.7462     0.0000    18.0000 </r>
       <r>   -44.5105     0.0000    18.0000 </r>
       <r>   -44.2749     0.0000    18.0000 </r>
       <r>   -44.0393     0.0000    18.0000 </r>
       <r>   -43.8036     0.0000    18.0000 </r>
       <r>   -43.5680     0.0000    18.0000 </r>
       <r>   -43.3324     0.0000    18.0000 </r>
       <r>   -43.0967     0.0000    18.0000 </r>
       <r>   -42.8611     0.0000    18.0000 </r>
       <r>   -42.6255     0.0000    18.0000 </r>
       <r>   -42.3898     0.0000    18.0000 </r>
       <r>   -42.1542     0.0000    18.0000 </r>
       <r>   -41.9186     0.0000    18.0000 </r>
       <r>   -41.6829     0.0000    18.0000 </r>
       <r>   -41.4473     0.0000    18.0000 </r>
       <r>   -41.2116     0.0000    18.0000 </r>
       <r>   -40.9760     0.0000    18.0000 </r>
       <r>   -40.7404     0.0000    18.0000 </r>
       <r>   -40.5047     0.0000    18.0000 </r>
       <r>   -40.2691     0.0000    18.0000 </r>
       <r>   -40.0335     0.0000    18.0000 </r>
       <r>   -39.7978     0.0000    18.0000 </r>
       <r>   -39.5622     0.0000    18.0000 </r>
       <r>   -39.3266     0.0000    18.0000 </r>
       <r>   -39.0909     0.0000    18.0000 </r>
       <r>   -38.8553     0.0000    18.0000 </r>
       <r>   -38.6197     0.0000    18.0000 </r>
       <r>   -38.3840     0.0000    18.0000 </r>
       <r>   -38.1484     0.0000    18.0000 </r>
       <r>   -37.9127     0.0000    18.0000 </r>
       <r>   -37.6771     0.0000    18.0000 </r>
       <r>   -37.4415     0.0000    18.0000 </r>
       <r>   -37.2058     0.0000    18.0000 </r>
       <r>   -36.9702     0.0000    18.0000 </r>
       <r>   -36.7346    24.4994    23.7729 </r>
       <r>   -36.4989   154.3321    60.1391 </r>
       <r>   -36.2633    50.3358    72.0000 </r>
       <r>   -36.0277     0.0002    72.0000 </r>
       <r>   -35.7920     0.0000    72.0000 </r>
       <r>   -35.5564     0.0000    72.0000 </r>
       <r>   -35.3208     0.0000    72.0000 </r>
       <r>   -35.0851     0.0000    72.0000 </r>
       <r>   -34.8495     0.0000    72.0000 </r>
       <r>   -34.6139     0.0000    72.0000 </r>
       <r>   -34.3782     0.0000    72.0000 </r>
       <r>   -34.1426     0.0000    72.0000 </r>
       <r>   -33.9069     0.0000    72.0000 </r>
       <r>   -33.6713     0.0000    72.0000 </r>
       <r>   -33.4357     0.0000    72.0000 </r>
       <r>   -33.2000     0.0000    72.0000 </r>
       <r>   -32.9644     0.0000    72.0000 </r>
       <r>   -32.7288     0.0000    72.0000 </r>
       <r>   -32.4931     0.0000    72.0000 </r>
       <r>   -32.2575     0.0000    72.0000 </r>
       <r>   -32.0219     0.0000    72.0000 </r>
       <r>   -31.7862     0.0000    72.0000 </r>
       <r>   -31.5506     0.0000    72.0000 </r>
       <r>   -31.3150     0.0000    72.0000 </r>
       <r>   -31.0793     0.0000    72.0000 </r>
       <r>   -30.8437     0.0000    72.0000 </r>
       <r>   -30.6081     0.0000    72.0000 </r>
       <r>   -30.3724     0.0000    72.0000 </r>
       <r>   -30.1368     0.0000    72.0000 </r>
       <r>   -29.9011     0.0000    72.0000 </r>
       <r>   -29.6655     0.0000    72.0000 </r>
       <r>   -29.4299     0.0000    72.0000 </r>
       <r>   -29.1942     0.0000    72.0000 </r>
       <r>   -28.9586     0.0000    72.0000 </r>
       <r>   -28.7230     0.0000    72.0000 </r>
       <r>   -28.4873     0.0000    72.0000 </r>
       <r>   -28.2517     0.0000    72.0000 </r>
       <r>   -28.0161     0.0000    72.0000 </r>
       <r>   -27.7804     0.0000    72.0000 </r>
       <r>   -27.5448     0.0000    72.0000 </r>
       <r>   -27.3092     0.0000    72.0000 </r>
       <r>   -27.0735     0.0000    72.0000 </r>
       <r>   -26.8379     0.0000    72.0000 </r>
       <r>   -26.6022     0.0000    72.0000 </r>
       <r>   -26.3666     0.0000    72.0000 </r>
       <r>   -26.1310     0.0000    72.0000 </r>
       <r>   -25.8953     0.0000    72.0000 </r>
       <r>   -25.6597     0.0000    72.0000 </r>
       <r>   -25.4241     0.0000    72.0000 </r>
       <r>   -25.1884     0.0000    72.0000 </r>
       <r>   -24.9528     0.0000    72.0000 </r>
       <r>   -24.7172     0.0000    72.0000 </r>
       <r>   -24.4815     0.0000    72.0000 </r>
       <r>   -24.2459     0.0000    72.0000 </r>
       <r>   -24.0103     0.0000    72.0000 </r>
       <r>   -23.7746     0.0000    72.0000 </r>
       <r>   -23.5390     0.0000    72.0000 </r>
       <r>   -23.3034     0.0000    72.0000 </r>
       <r>   -23.0677     0.0000    72.0000 </r>
       <r>   -22.8321     0.0000    72.0000 </r>
       <r>   -22.5964     0.0000    72.0000 </r>
       <r>   -22.3608     0.0000    72.0000 </r>
       <r>   -22.1252     0.0000    72.0000 </r>
       <r>   -21.8895     0.0000    72.0000 </r>
       <r>   -21.6539     0.0000    72.0000 </r>
       <r>   -21.4183     0.0000    72.0000 </r>
       <r>   -21.1826     0.0000    72.0000 </r>
       <r>   -20.9470     0.0000    72.0000 </r>
       <r>   -20.7114     0.0000    72.0000 </r>
       <r>   -20.4757     0.0000    72.0000 </r>
       <r>   -20.2401     0.0000    72.0000 </r>
       <r>   -20.0045     0.0000    72.0000 </r>
       <r>   -19.7688     0.0000    72.0000 </r>
       <r>   -19.5332     0.0000    72.0000 </r>
       <r>   -19.2975     0.0000    72.0000 </r>
       <r>   -19.0619     0.0000    72.0000 </r>
       <r>   -18.8263     0.0000    72.0000 </r>
       <r>   -18.5906     0.0000    72.0000 </r>
       <r>   -18.3550     0.0000    72.0000 </r>
       <r>   -18.1194     0.0000    72.0000 </r>
       <r>   -17.8837     0.0000    72.0000 </r>
       <r>   -17.6481     0.0000    72.0000 </r>
       <r>   -17.4125     0.0000    72.0000 </r>
       <r>   -17.1768     0.0000    72.0000 </r>
       <r>   -16.9412     0.0000    72.0000 </r>
       <r>   -16.7056     0.0000    72.0000 </r>
       <r>   -16.4699     0.0000    72.0000 </r>
       <r>   -16.2343     0.0000    72.0000 </r>
       <r>   -15.9987     0.0000    72.0000 </r>
       <r>   -15.7630     0.0000    72.0000 </r>
       <r>   -15.5274     2.0186    72.4757 </r>
       <r>   -15.2917     5.3273    73.7310 </r>
       <r>   -15.0561     4.8294    74.8689 </r>
       <r>   -14.8205     5.4189    76.1458 </r>
       <r>   -14.5848     5.5769    77.4599 </r>
       <r>   -14.3492     9.5610    79.7129 </r>
       <r>   -14.1136    19.7929    84.3768 </r>
       <r>   -13.8779    25.9658    90.4952 </r>
       <r>   -13.6423    36.4543    99.0852 </r>
       <r>   -13.4067    33.8442   107.0601 </r>
       <r>   -13.1710     3.9890   108.0000 </r>
       <r>   -12.9354     0.0000   108.0000 </r>
       <r>   -12.6998     0.0000   108.0000 </r>
       <r>   -12.4641     0.0000   108.0000 </r>
       <r>   -12.2285     0.0000   108.0000 </r>
       <r>   -11.9929     0.0000   108.0000 </r>
       <r>   -11.7572     0.0000   108.0000 </r>
       <r>   -11.5216     0.0000   108.0000 </r>
       <r>   -11.2859     0.0000   108.0000 </r>
       <r>   -11.0503     0.0000   108.0000 </r>
       <r>   -10.8147     0.0000   108.0000 </r>
       <r>   -10.5790     0.0000   108.0000 </r>
       <r>   -10.3434     0.0000   108.0000 </r>
       <r>   -10.1078     0.0000   108.0000 </r>
       <r>    -9.8721     0.0000   108.0000 </r>
       <r>    -9.6365     0.0000   108.0000 </r>
       <r>    -9.4009     0.0000   108.0000 </r>
       <r>    -9.1652     0.0000   108.0000 </r>
       <r>    -8.9296     0.0000   108.0000 </r>
       <r>    -8.6940     0.0000   108.0000 </r>
       <r>    -8.4583     0.0000   108.0000 </r>
       <r>    -8.2227     0.0000   108.0000 </r>
       <r>    -7.9870     0.0000   108.0000 </r>
       <r>    -7.7514     0.0000   108.0000 </r>
       <r>    -7.5158     0.0000   108.0000 </r>
       <r>    -7.2801     1.9694   108.4641 </r>
       <r>    -7.0445    12.6688   111.4493 </r>
       <r>    -6.8089    19.4733   116.0379 </r>
       <r>    -6.5732    32.2529   123.6378 </r>
       <r>    -6.3376    31.5005   131.0604 </r>
       <r>    -6.1020    12.9555   134.1132 </r>
       <r>    -5.8663     7.1194   135.7908 </r>
       <r>    -5.6307     9.2374   137.9675 </r>
       <r>    -5.3951    36.7371   146.6240 </r>
       <r>    -5.1594    32.8561   154.3661 </r>
       <r>    -4.9238    18.9839   158.8394 </r>
       <r>    -4.6882    27.5909   165.3408 </r>
       <r>    -4.4525    29.1952   172.2202 </r>
       <r>    -4.2169    19.5768   176.8332 </r>
       <r>    -3.9812    15.4088   180.4640 </r>
       <r>    -3.7456    18.5113   184.8259 </r>
       <r>    -3.5100    26.1660   190.9916 </r>
       <r>    -3.2743    34.8032   199.1925 </r>
       <r>    -3.0387    26.4814   205.4324 </r>
       <r>    -2.8031    20.7719   210.3270 </r>
       <r>    -2.5674    21.3196   215.3507 </r>
       <r>    -2.3318    22.9331   220.7545 </r>
       <r>    -2.0962    22.8836   226.1467 </r>
       <r>    -1.8605    16.0965   229.9396 </r>
       <r>    -1.6249    15.7093   233.6413 </r>
       <r>    -1.3893     1.5223   234.0000 </r>
       <r>    -1.1536     0.0000   234.0000 </r>
       <r>    -0.9180     0.0000   234.0000 </r>
       <r>    -0.6824     0.0000   234.0000 </r>
       <r>    -0.4467     0.0000   234.0000 </r>
       <r>    -0.2111     0.0000   234.0000 </r>
       <r>     0.0246     0.4268   234.1006 </r>
       <r>     0.2602    16.4080   237.9669 </r>
       <r>     0.4958    28.1830   244.6078 </r>
       <r>     0.7315    34.9911   252.8529 </r>
       <r>     0.9671    38.5930   261.9468 </r>
       <r>     1.2027    38.1158   270.9282 </r>
       <r>     1.4384    28.3927   277.6186 </r>
       <r>     1.6740     9.8298   279.9348 </r>
       <r>     1.9096     0.2766   280.0000 </r>
       <r>     2.1453     0.0000   280.0000 </r>
       <r>     2.3809     0.0000   280.0000 </r>
       <r>     2.6165     0.0000   280.0000 </r>
       <r>     2.8522     0.0000   280.0000 </r>
       <r>     3.0878     0.0000   280.0000 </r>
       <r>     3.3235     0.0000   280.0000 </r>
       <r>     3.5591     0.0000   280.0000 </r>
       <r>     3.7947     0.0000   280.0000 </r>
       <r>     4.0304     0.0000   280.0000 </r>
       <r>     4.2660     0.0000   280.0000 </r>
       <r>     4.5016     0.0000   280.0000 </r>
       <r>     4.7373     0.0000   280.0000 </r>
       <r>     4.9729     0.0000   280.0000 </r>
      </set>
     </set>
    </array>
   </total>
  </dos>
 </calculation>
 <structure name="finalpos" >
  <crystal>
   <varray name="basis" >
    <v>       9.55219900       0.00000000       0.00000000 </v>
    <v>      -4.77610000       8.27244700       0.00000000 </v>
    <v>       0.00000000       0.00000000      18.12711300 </v>
   </varray>
   <i name="volume">   1432.40555618 </i>
   <varray name="rec_basis" >
    <v>       0.10468794       0.06044161      -0.00000000 </v>
    <v>       0.00000000       0.12088322       0.00000000 </v>
    <v>       0.00000000      -0.00000000       0.05516598 </v>
   </varray>
  </crystal>
  <varray name="positions" >
   <v>       0.99856725       0.99212219       0.49937030 </v>
   <v>       0.33557149       0.33301879       0.50125266 </v>
   <v>       0.65727110       0.99272741       0.49586009 </v>
   <v>       0.34150851       0.01442971       0.49964993 </v>
   <v>       0.33239398       0.66894266       0.50506069 </v>
   <v>       0.66833534       0.33918472       0.49956493 </v>
   <v>       0.98386655       0.31565012       0.49445553 </v>
   <v>       0.66769229       0.67145898       0.50205966 </v>
   <v>       0.01616307       0.67200192       0.50269218 </v>
   <v>       0.56584321       0.11620099       0.58239838 </v>
   <v>       0.22621294       0.11120343       0.58934742 </v>
   <v>       0.21634209       0.11824668       0.40946203 </v>
   <v>       0.20303500       0.43791161       0.58588827 </v>
   <v>       0.20956752       0.43507588       0.41576765 </v>
   <v>       0.24063922       0.79843353       0.59225505 </v>
   <v>       0.23500395       0.78151968       0.41649512 </v>
   <v>       0.55434617       0.11389073       0.41160450 </v>
   <v>       0.54901235       0.76173365       0.41409504 </v>
   <v>       0.56323810       0.45568839       0.58996877 </v>
   <v>       0.55761569       0.78110617       0.58785012 </v>
   <v>       0.55697797       0.45069699       0.41376333 </v>
   <v>       0.89077676       0.10252702       0.58290253 </v>
   <v>       0.87676294       0.10117878       0.40646851 </v>
   <v>       0.88097412       0.43503265       0.58727654 </v>
   <v>       0.88542286       0.45400512       0.41266004 </v>
   <v>       0.88467828       0.77437850       0.58937028 </v>
   <v>       0.89945310       0.77255694       0.41252821 </v>
  </varray>
 </structure>
</modeling>
