<?xml version="1.0" encoding="ISO-8859-1"?>
<modeling>
 <generator>
  <i name="program" type="string">vasp </i>
  <i name="version" type="string">5.4.4.18Apr17-6-g9f103f2a35  </i>
  <i name="subversion" type="string">(build Oct  7 2019 15:10:45) complex            parallel </i>
  <i name="platform" type="string">LinuxGNU </i>
  <i name="date" type="string">2021 11 08 </i>
  <i name="time" type="string">11:01:40 </i>
 </generator>
 <incar>
  <i type="string" name="SYSTEM">mos2</i>
  <i type="int" name="ISTART">     0</i>
  <i type="string" name="PREC">accurate</i>
  <i type="string" name="ALGO"> Normal</i>
  <i type="int" name="NSIM">     4</i>
  <i type="int" name="NELM">  1000</i>
  <i type="int" name="NELMIN">     2</i>
  <i type="int" name="IBRION">    -1</i>
  <i name="EDIFF">      0.00000100</i>
  <i type="int" name="NSW">     0</i>
  <i name="ENCUT">    600.00000000</i>
  <i type="string" name="LREAL"> Auto</i>
  <i type="int" name="ISMEAR">     0</i>
  <i name="SIGMA">      0.05000000</i>
  <i type="logical" name="LWAVE"> F  </i>
  <i type="logical" name="LCHARG"> T  </i>
  <v type="int" name="KPOINT_BSE">    -1     0     0     0</v>
  <i type="int" name="NELM">  1000</i>
 </incar>
 <structure name="primitive_cell" >
  <crystal>
   <varray name="basis" >
    <v>       9.56424100       0.00000000       0.00000000 </v>
    <v>      -4.78212000       8.28287600       0.00000000 </v>
    <v>      -0.00000000       0.00000000      18.15827300 </v>
   </varray>
   <i name="volume">   1438.48789588 </i>
   <varray name="rec_basis" >
    <v>       0.10455613       0.06036550       0.00000000 </v>
    <v>       0.00000000       0.12073101      -0.00000000 </v>
    <v>       0.00000000      -0.00000000       0.05507132 </v>
   </varray>
  </crystal>
  <varray name="positions" >
   <v>       0.03061442       0.01058128       0.49932784 </v>
   <v>       0.23026744       0.10832415      -0.41020257 </v>
   <v>      -0.11065622      -0.20085926      -0.41557882 </v>
   <v>       0.12310539      -0.11825130       0.40968696 </v>
   <v>      -0.22620001      -0.11427194       0.43126581 </v>
   <v>       0.12107185       0.22853476       0.40432752 </v>
   <v>      -0.12223568       0.10485622      -0.41587186 </v>
   <v>      -0.02285615      -0.32133000       0.49956488 </v>
   <v>       0.30540122       0.34633768      -0.49903660 </v>
   <v>      -0.01821805       0.29639323       0.49548109 </v>
   <v>       0.32887868      -0.02853100       0.49984040 </v>
   <v>      -0.34747847       0.01333618       0.49798269 </v>
   <v>      -0.35463733      -0.36514692      -0.49790061 </v>
   <v>       0.45136487       0.23025761       0.43594832 </v>
   <v>       0.21741370      -0.22327115      -0.41278929 </v>
   <v>       0.20452711       0.45589187      -0.41702262 </v>
   <v>      -0.21967900       0.21290096       0.40670673 </v>
   <v>      -0.23495083      -0.44860833       0.41031696 </v>
   <v>      -0.44115045      -0.20772351      -0.41056833 </v>
   <v>      -0.45881522       0.42193645      -0.41241554 </v>
   <v>      -0.43846034       0.12926475      -0.41510514 </v>
   <v>       0.11615640      -0.43487363       0.43342774 </v>
   <v>       0.44251448      -0.43834303       0.41122924 </v>
   <v>       0.45392333      -0.11340746       0.40864337 </v>
   <v>      -0.09176364       0.45485721      -0.41737804 </v>
   <v>      -0.29198816       0.34922901       0.49440647 </v>
   <v>       0.36479140      -0.31664991      -0.49789503 </v>
  </varray>
 </structure>
 <varray name="primitive_index" >
  <v type="int" >        1 </v>
  <v type="int" >       11 </v>
  <v type="int" >       26 </v>
  <v type="int" >       16 </v>
  <v type="int" >       27 </v>
  <v type="int" >       12 </v>
  <v type="int" >       22 </v>
  <v type="int" >        9 </v>
  <v type="int" >        2 </v>
  <v type="int" >        7 </v>
  <v type="int" >        4 </v>
  <v type="int" >        3 </v>
  <v type="int" >        8 </v>
  <v type="int" >       17 </v>
  <v type="int" >       15 </v>
  <v type="int" >       13 </v>
  <v type="int" >       23 </v>
  <v type="int" >       25 </v>
  <v type="int" >       20 </v>
  <v type="int" >       19 </v>
  <v type="int" >       10 </v>
  <v type="int" >       14 </v>
  <v type="int" >       21 </v>
  <v type="int" >       18 </v>
  <v type="int" >       24 </v>
  <v type="int" >        6 </v>
  <v type="int" >        5 </v>
 </varray>
 <kpoints>
  <generation param="Gamma">
   <v type="int" name="divisions">       6        6        1 </v>
   <v name="usershift">      0.00000000       0.00000000       0.00000000 </v>
   <v name="genvec1">      0.16666667       0.00000000       0.00000000 </v>
   <v name="genvec2">      0.00000000       0.16666667       0.00000000 </v>
   <v name="genvec3">      0.00000000       0.00000000       1.00000000 </v>
   <v name="shift">      0.00000000       0.00000000       0.00000000 </v>
  </generation>
  <varray name="kpointlist" >
   <v>       0.00000000       0.00000000       0.00000000 </v>
   <v>       0.16666667       0.00000000       0.00000000 </v>
   <v>       0.33333333       0.00000000       0.00000000 </v>
   <v>       0.50000000       0.00000000       0.00000000 </v>
   <v>       0.00000000       0.16666667       0.00000000 </v>
   <v>       0.16666667       0.16666667       0.00000000 </v>
   <v>       0.33333333       0.16666667       0.00000000 </v>
   <v>       0.50000000       0.16666667       0.00000000 </v>
   <v>      -0.33333333       0.16666667       0.00000000 </v>
   <v>      -0.16666667       0.16666667       0.00000000 </v>
   <v>       0.00000000       0.33333333       0.00000000 </v>
   <v>       0.16666667       0.33333333       0.00000000 </v>
   <v>       0.33333333       0.33333333       0.00000000 </v>
   <v>       0.50000000       0.33333333       0.00000000 </v>
   <v>      -0.33333333       0.33333333       0.00000000 </v>
   <v>      -0.16666667       0.33333333       0.00000000 </v>
   <v>       0.00000000       0.50000000       0.00000000 </v>
   <v>       0.16666667       0.50000000       0.00000000 </v>
   <v>       0.33333333       0.50000000       0.00000000 </v>
   <v>       0.50000000       0.50000000       0.00000000 </v>
  </varray>
  <varray name="weights" >
   <v>       0.02777778 </v>
   <v>       0.05555556 </v>
   <v>       0.05555556 </v>
   <v>       0.02777778 </v>
   <v>       0.05555556 </v>
   <v>       0.05555556 </v>
   <v>       0.05555556 </v>
   <v>       0.05555556 </v>
   <v>       0.05555556 </v>
   <v>       0.05555556 </v>
   <v>       0.05555556 </v>
   <v>       0.05555556 </v>
   <v>       0.05555556 </v>
   <v>       0.05555556 </v>
   <v>       0.05555556 </v>
   <v>       0.05555556 </v>
   <v>       0.02777778 </v>
   <v>       0.05555556 </v>
   <v>       0.05555556 </v>
   <v>       0.02777778 </v>
  </varray>
 </kpoints>
 <parameters>
  <separator name="general" >
   <i type="string" name="SYSTEM">mos2</i>
   <i type="logical" name="LCOMPAT"> F  </i>
  </separator>
  <separator name="electronic" >
   <i type="string" name="PREC">accura</i>
   <i name="ENMAX">    600.00000000</i>
   <i name="ENAUG">    446.01400000</i>
   <i name="EDIFF">      0.00000100</i>
   <i type="int" name="IALGO">    38</i>
   <i type="int" name="IWAVPR">    10</i>
   <i type="int" name="NBANDS">   140</i>
   <i name="NELECT">    234.00000000</i>
   <i type="int" name="TURBO">     0</i>
   <i type="int" name="IRESTART">     0</i>
   <i type="int" name="NREBOOT">     0</i>
   <i type="int" name="NMIN">     0</i>
   <i name="EREF">      0.00000000</i>
   <separator name="electronic smearing" >
    <i type="int" name="ISMEAR">     0</i>
    <i name="SIGMA">      0.05000000</i>
    <i name="KSPACING">      0.50000000</i>
    <i type="logical" name="KGAMMA"> T  </i>
   </separator>
   <separator name="electronic projectors" >
    <i type="logical" name="LREAL"> T  </i>
    <v name="ROPT">     -0.00025000     -0.00025000</v>
    <i type="int" name="LMAXPAW">  -100</i>
    <i type="int" name="LMAXMIX">     2</i>
    <i type="logical" name="NLSPLINE"> F  </i>
   </separator>
   <separator name="electronic startup" >
    <i type="int" name="ISTART">     0</i>
    <i type="int" name="ICHARG">     2</i>
    <i type="int" name="INIWAV">     1</i>
   </separator>
   <separator name="electronic spin" >
    <i type="int" name="ISPIN">     1</i>
    <i type="logical" name="LNONCOLLINEAR"> F  </i>
    <v name="MAGMOM">      1.00000000      1.00000000      1.00000000      1.00000000      1.00000000      1.00000000      1.00000000      1.00000000      1.00000000      1.00000000      1.00000000      1.00000000      1.00000000      1.00000000      1.00000000      1.00000000      1.00000000      1.00000000      1.00000000      1.00000000
      1.00000000      1.00000000      1.00000000      1.00000000      1.00000000      1.00000000      1.00000000</v>
    <i name="NUPDOWN">     -1.00000000</i>
    <i type="logical" name="LSORBIT"> F  </i>
    <v name="SAXIS">      0.00000000      0.00000000      1.00000000</v>
    <i type="logical" name="LSPIRAL"> F  </i>
    <v name="QSPIRAL">      0.00000000      0.00000000      0.00000000</v>
    <i type="logical" name="LZEROZ"> F  </i>
   </separator>
   <separator name="electronic exchange-correlation" >
    <i type="logical" name="LASPH"> F  </i>
    <i type="logical" name="LMETAGGA"> F  </i>
   </separator>
   <separator name="electronic convergence" >
    <i type="int" name="NELM">  1000</i>
    <i type="int" name="NELMDL">    -5</i>
    <i type="int" name="NELMIN">     2</i>
    <i name="ENINI">    600.00000000</i>
    <separator name="electronic convergence detail" >
     <i type="logical" name="LDIAG"> T  </i>
     <i type="logical" name="LSUBROT"> F  </i>
     <i name="WEIMIN">      0.00000000</i>
     <i name="EBREAK">      0.00000000</i>
     <i name="DEPER">      0.30000000</i>
     <i type="int" name="NRMM">     4</i>
     <i name="TIME">      0.40000000</i>
    </separator>
   </separator>
   <separator name="electronic mixer" >
    <i name="AMIX">      0.40000000</i>
    <i name="BMIX">      1.00000000</i>
    <i name="AMIN">      0.10000000</i>
    <i name="AMIX_MAG">      1.60000000</i>
    <i name="BMIX_MAG">      1.00000000</i>
    <separator name="electronic mixer details" >
     <i type="int" name="IMIX">     4</i>
     <i type="logical" name="MIXFIRST"> F  </i>
     <i type="int" name="MAXMIX">   -45</i>
     <i name="WC">    100.00000000</i>
     <i type="int" name="INIMIX">     1</i>
     <i type="int" name="MIXPRE">     1</i>
     <i type="int" name="MREMOVE">     5</i>
    </separator>
   </separator>
   <separator name="electronic dipolcorrection" >
    <i type="logical" name="LDIPOL"> F  </i>
    <i type="logical" name="LMONO"> F  </i>
    <i type="int" name="IDIPOL">     0</i>
    <i name="EPSILON">      1.00000000</i>
    <v name="DIPOL">   -100.00000000   -100.00000000   -100.00000000</v>
    <i name="EFIELD">      0.00000000</i>
   </separator>
  </separator>
  <separator name="grids" >
   <i type="int" name="NGX">    80</i>
   <i type="int" name="NGY">    80</i>
   <i type="int" name="NGZ">   150</i>
   <i type="int" name="NGXF">   160</i>
   <i type="int" name="NGYF">   160</i>
   <i type="int" name="NGZF">   300</i>
   <i type="logical" name="ADDGRID"> F  </i>
  </separator>
  <separator name="ionic" >
   <i type="int" name="NSW">     0</i>
   <i type="int" name="IBRION">    -1</i>
   <i type="int" name="MDALGO">     0</i>
   <i type="int" name="ISIF">     2</i>
   <i name="PSTRESS">      0.00000000</i>
   <i name="EDIFFG">      0.00001000</i>
   <i type="int" name="NFREE">     0</i>
   <i name="POTIM">      0.50000000</i>
   <i name="SMASS">     -3.00000000</i>
   <i name="SCALEE">      1.00000000</i>
  </separator>
  <separator name="ionic md" >
   <i name="TEBEG">      0.00010000</i>
   <i name="TEEND">      0.00010000</i>
   <i type="int" name="NBLOCK">     1</i>
   <i type="int" name="KBLOCK">     1</i>
   <i type="int" name="NPACO">   256</i>
   <i name="APACO">     16.00000000</i>
  </separator>
  <separator name="symmetry" >
   <i type="int" name="ISYM">     2</i>
   <i name="SYMPREC">      0.00001000</i>
  </separator>
  <separator name="dos" >
   <i type="int" name="LORBIT">     0</i>
   <v name="RWIGS">     -1.00000000     -1.00000000</v>
   <i type="int" name="NEDOS">   301</i>
   <i name="EMIN">     10.00000000</i>
   <i name="EMAX">    -10.00000000</i>
   <i name="EFERMI">      0.00000000</i>
  </separator>
  <separator name="writing" >
   <i type="int" name="NWRITE">     2</i>
   <i type="logical" name="LWAVE"> F  </i>
   <i type="logical" name="LDOWNSAMPLE"> F  </i>
   <i type="logical" name="LCHARG"> T  </i>
   <i type="logical" name="LPARD"> F  </i>
   <i type="logical" name="LVTOT"> F  </i>
   <i type="logical" name="LVHAR"> F  </i>
   <i type="logical" name="LELF"> F  </i>
   <i type="logical" name="LOPTICS"> F  </i>
   <v name="STM">      0.00000000      0.00000000      0.00000000      0.00000000      0.00000000      0.00000000      0.00000000</v>
  </separator>
  <separator name="performance" >
   <i type="int" name="NPAR">     4</i>
   <i type="int" name="NSIM">     4</i>
   <i type="int" name="NBLK">    -1</i>
   <i type="logical" name="LPLANE"> T  </i>
   <i type="logical" name="LSCALAPACK"> T  </i>
   <i type="logical" name="LSCAAWARE"> F  </i>
   <i type="logical" name="LSCALU"> F  </i>
   <i type="logical" name="LASYNC"> F  </i>
   <i type="logical" name="LORBITALREAL"> F  </i>
  </separator>
  <separator name="miscellaneous" >
   <i type="int" name="IDIOT">     3</i>
   <i type="int" name="ISPECIAL">     0</i>
   <i type="logical" name="LMUSIC"> F  </i>
   <v name="POMASS">     95.94000000     32.06600000</v>
   <v name="DARWINR">      0.00000000      0.00000000</v>
   <v name="DARWINV">      1.00000000      1.00000000</v>
   <i type="logical" name="LCORR"> T  </i>
  </separator>
  <i type="logical" name="GGA_COMPAT"> T  </i>
  <i type="logical" name="LBERRY"> F  </i>
  <i type="int" name="ICORELEVEL">     0</i>
  <i type="logical" name="LDAU"> F  </i>
  <i type="int" name="I_CONSTRAINED_M">     0</i>
  <separator name="electronic exchange-correlation" >
   <i type="string" name="GGA">--</i>
   <i type="int" name="VOSKOWN">     0</i>
   <i type="logical" name="LHFCALC"> F  </i>
   <i type="string" name="PRECFOCK"></i>
   <i type="logical" name="LSYMGRAD"> F  </i>
   <i type="logical" name="LHFONE"> F  </i>
   <i type="logical" name="LRHFCALC"> F  </i>
   <i type="logical" name="LTHOMAS"> F  </i>
   <i type="logical" name="LMODELHF"> F  </i>
   <i name="ENCUT4O">     -1.00000000</i>
   <i type="int" name="EXXOEP">     0</i>
   <i type="int" name="FOURORBIT">     0</i>
   <i name="AEXX">      0.00000000</i>
   <i name="HFALPHA">      0.00000000</i>
   <i name="MCALPHA">      0.00000000</i>
   <i name="ALDAX">      1.00000000</i>
   <i name="AGGAX">      1.00000000</i>
   <i name="ALDAC">      1.00000000</i>
   <i name="AGGAC">      1.00000000</i>
   <i type="int" name="NKREDX">     1</i>
   <i type="int" name="NKREDY">     1</i>
   <i type="int" name="NKREDZ">     1</i>
   <i type="logical" name="SHIFTRED"> F  </i>
   <i type="logical" name="ODDONLY"> F  </i>
   <i type="logical" name="EVENONLY"> F  </i>
   <i type="int" name="LMAXFOCK">     0</i>
   <i type="int" name="NMAXFOCKAE">     0</i>
   <i type="logical" name="LFOCKAEDFT"> F  </i>
   <i name="HFSCREEN">      0.00000000</i>
   <i name="HFSCREENC">      0.00000000</i>
   <i type="int" name="NBANDSGWLOW">     0</i>
  </separator>
  <separator name="vdW DFT" >
   <i type="logical" name="LUSE_VDW"> F  </i>
   <i name="Zab_VDW">     -0.84910000</i>
   <i name="PARAM1">      0.12340000</i>
   <i name="PARAM2">      1.00000000</i>
   <i name="PARAM3">      0.00000000</i>
  </separator>
  <separator name="model GW" >
   <i type="int" name="MODEL_GW">     0</i>
   <i name="MODEL_EPS0">     31.96639769</i>
   <i name="MODEL_ALPHA">      1.00000000</i>
  </separator>
  <separator name="linear response parameters" >
   <i type="logical" name="LEPSILON"> F  </i>
   <i type="logical" name="LRPA"> F  </i>
   <i type="logical" name="LNABLA"> F  </i>
   <i type="logical" name="LVEL"> F  </i>
   <i type="int" name="KINTER">     0</i>
   <i name="CSHIFT">      0.10000000</i>
   <i name="OMEGAMAX">     -1.00000000</i>
   <i name="DEG_THRESHOLD">      0.00200000</i>
   <i name="RTIME">     -0.10000000</i>
   <i name="WPLASMAI">      0.00000000</i>
   <v name="DFIELD">      0.00000000      0.00000000      0.00000000</v>
   <v name="WPLASMA">      0.00000000      0.00000000      0.00000000      0.00000000      0.00000000      0.00000000      0.00000000      0.00000000      0.00000000</v>
  </separator>
  <separator name="orbital magnetization" >
   <i type="logical" name="NUCIND"> F  </i>
   <v name="MAGPOS">      0.00000000      0.00000000      0.00000000</v>
   <i type="logical" name="LNICSALL"> T  </i>
   <i type="logical" name="ORBITALMAG"> F  </i>
   <i type="logical" name="LMAGBLOCH"> F  </i>
   <i type="logical" name="LCHIMAG"> F  </i>
   <i type="logical" name="LGAUGE"> T  </i>
   <i type="int" name="MAGATOM">     0</i>
   <v name="MAGDIPOL">      0.00000000      0.00000000      0.00000000</v>
   <v name="AVECCONST">      0.00000000      0.00000000      0.00000000</v>
  </separator>
  <separator name="response functions" >
   <i type="logical" name="LADDER"> F  </i>
   <i type="logical" name="LRPAFORCE"> F  </i>
   <i type="logical" name="LFXC"> F  </i>
   <i type="logical" name="LHARTREE"> T  </i>
   <i type="int" name="IBSE">     0</i>
   <v type="int" name="KPOINT">    -1     0     0     0</v>
   <i type="logical" name="LTCTE"> F  </i>
   <i type="logical" name="LTETE"> F  </i>
   <i type="logical" name="LTRIPLET"> F  </i>
   <i type="logical" name="LFXCEPS"> F  </i>
   <i type="logical" name="LFXHEG"> F  </i>
   <i type="int" name="NATURALO">     2</i>
   <i type="logical" name="L2ORDER"> F  </i>
   <i type="logical" name="LMP2LT"> F  </i>
   <i type="logical" name="LUSEW"> F  </i>
   <i name="ENCUTGW">     -2.00000000</i>
   <i name="ENCUTGWSOFT">     -2.00000000</i>
   <i name="ENCUTLF">     -1.00000000</i>
   <i type="int" name="LMAXMP2">    -1</i>
   <i name="SCISSOR">      0.00000000</i>
   <i type="int" name="NOMEGA">     0</i>
   <i type="int" name="NOMEGAR">     0</i>
   <i type="int" name="NBANDSGW">    -1</i>
   <i type="int" name="NBANDSO">    -1</i>
   <i type="int" name="NBANDSV">    -1</i>
   <i type="int" name="NELM">  1000</i>
   <i type="int" name="NELMHF">     1</i>
   <i type="int" name="DIM">     3</i>
   <i type="int" name="ANTIRES">     0</i>
   <i name="OMEGAMAX">    -30.00000000</i>
   <i name="OMEGAMIN">    -30.00000000</i>
   <i name="OMEGATL">   -200.00000000</i>
   <i type="int" name="OMEGAGRID">   140</i>
   <i name="CSHIFT">     -0.10000000</i>
   <i type="logical" name="SELFENERGY"> F  </i>
   <i type="logical" name="LSPECTRAL"> F  </i>
   <i type="logical" name="LSPECTRALGW"> F  </i>
   <i type="logical" name="LSINGLES"> F  </i>
   <i type="logical" name="LFERMIGW"> F  </i>
   <i type="logical" name="ODDONLYGW"> F  </i>
   <i type="logical" name="EVENONLYGW"> F  </i>
   <i type="int" name="NKREDLFX">     1</i>
   <i type="int" name="NKREDLFY">     1</i>
   <i type="int" name="NKREDLFZ">     1</i>
   <i type="int" name="MAXMEM">  2800</i>
   <i type="int" name="TELESCOPE">     0</i>
   <i type="int" name="TAUPAR">     1</i>
   <i type="int" name="OMEGAPAR">    -1</i>
   <i name="LAMBDA">      1.00000000</i>
  </separator>
  <separator name="External order field" >
   <i name="OFIELD_KAPPA">      0.00000000</i>
   <v name="OFIELD_K">      0.00000000      0.00000000      0.00000000</v>
   <i name="OFIELD_Q6_NEAR">      0.00000000</i>
   <i name="OFIELD_Q6_FAR">      0.00000000</i>
   <i name="OFIELD_A">      0.00000000</i>
  </separator>
 </parameters>
 <atominfo>
  <atoms>      27 </atoms>
  <types>       2 </types>
  <array name="atoms" >
   <dimension dim="1">ion</dimension>
   <field type="string">element</field>
   <field type="int">atomtype</field>
   <set>
    <rc><c>Mo</c><c>   1</c></rc>
    <rc><c>Mo</c><c>   1</c></rc>
    <rc><c>Mo</c><c>   1</c></rc>
    <rc><c>Mo</c><c>   1</c></rc>
    <rc><c>Mo</c><c>   1</c></rc>
    <rc><c>Mo</c><c>   1</c></rc>
    <rc><c>Mo</c><c>   1</c></rc>
    <rc><c>Mo</c><c>   1</c></rc>
    <rc><c>Mo</c><c>   1</c></rc>
    <rc><c>S </c><c>   2</c></rc>
    <rc><c>S </c><c>   2</c></rc>
    <rc><c>S </c><c>   2</c></rc>
    <rc><c>S </c><c>   2</c></rc>
    <rc><c>S </c><c>   2</c></rc>
    <rc><c>S </c><c>   2</c></rc>
    <rc><c>S </c><c>   2</c></rc>
    <rc><c>S </c><c>   2</c></rc>
    <rc><c>S </c><c>   2</c></rc>
    <rc><c>S </c><c>   2</c></rc>
    <rc><c>S </c><c>   2</c></rc>
    <rc><c>S </c><c>   2</c></rc>
    <rc><c>S </c><c>   2</c></rc>
    <rc><c>S </c><c>   2</c></rc>
    <rc><c>S </c><c>   2</c></rc>
    <rc><c>S </c><c>   2</c></rc>
    <rc><c>S </c><c>   2</c></rc>
    <rc><c>S </c><c>   2</c></rc>
   </set>
  </array>
  <array name="atomtypes" >
   <dimension dim="1">type</dimension>
   <field type="int">atomspertype</field>
   <field type="string">element</field>
   <field>mass</field>
   <field>valence</field>
   <field type="string">pseudopotential</field>
   <set>
    <rc><c>   9</c><c>Mo</c><c>     95.94000000</c><c>     14.00000000</c><c>  PAW_PBE Mo_sv 02Feb2006               </c></rc>
    <rc><c>  18</c><c>S </c><c>     32.06600000</c><c>      6.00000000</c><c>  PAW_PBE S 06Sep2000                   </c></rc>
   </set>
  </array>
 </atominfo>
 <structure name="initialpos" >
  <crystal>
   <varray name="basis" >
    <v>       9.56424100       0.00000000       0.00000000 </v>
    <v>      -4.78212000       8.28287600       0.00000000 </v>
    <v>      -0.00000000       0.00000000      18.15827300 </v>
   </varray>
   <i name="volume">   1438.48789588 </i>
   <varray name="rec_basis" >
    <v>       0.10455613       0.06036550       0.00000000 </v>
    <v>       0.00000000       0.12073101      -0.00000000 </v>
    <v>       0.00000000      -0.00000000       0.05507132 </v>
   </varray>
  </crystal>
  <varray name="positions" >
   <v>       0.03061442       0.01058128       0.49932784 </v>
   <v>       0.30540122       0.34633768       0.50096340 </v>
   <v>       0.65252153       0.01333618       0.49798269 </v>
   <v>       0.32887868       0.97146900       0.49984040 </v>
   <v>       0.36479140       0.68335009       0.50210497 </v>
   <v>       0.70801184       0.34922901       0.49440647 </v>
   <v>       0.98178195       0.29639323       0.49548109 </v>
   <v>       0.64536267       0.63485308       0.50209939 </v>
   <v>       0.97714385       0.67867000       0.49956488 </v>
   <v>       0.56153966       0.12926475       0.58489486 </v>
   <v>       0.23026744       0.10832415       0.58979743 </v>
   <v>       0.12107185       0.22853476       0.40432752 </v>
   <v>       0.20452711       0.45589187       0.58297738 </v>
   <v>       0.11615640       0.56512637       0.43342774 </v>
   <v>       0.21741370       0.77672885       0.58721071 </v>
   <v>       0.12310539       0.88174870       0.40968696 </v>
   <v>       0.45136487       0.23025761       0.43594832 </v>
   <v>       0.45392333       0.88659254       0.40864337 </v>
   <v>       0.54118478       0.42193645       0.58758446 </v>
   <v>       0.55884955       0.79227649       0.58943167 </v>
   <v>       0.44251448       0.56165697       0.41122924 </v>
   <v>       0.87776432       0.10485622       0.58412814 </v>
   <v>       0.78032100       0.21290096       0.40670673 </v>
   <v>       0.90823636       0.45485721       0.58262196 </v>
   <v>       0.76504917       0.55139167       0.41031696 </v>
   <v>       0.88934378       0.79914074       0.58442118 </v>
   <v>       0.77379999       0.88572806       0.43126581 </v>
  </varray>
 </structure>
 <calculation>
  <scstep>
   <time name="dav">   83.63   84.08</time>
   <time name="total">   84.19   84.65</time>
   <energy>
    <i name="alphaZ">    266.37941352 </i>
    <i name="ewald">  40756.42536599 </i>
    <i name="hartreedc"> -59805.96818001 </i>
    <i name="XCdc">    823.20225373 </i>
    <i name="pawpsdc">  17395.10119161 </i>
    <i name="pawaedc"> -17171.31696658 </i>
    <i name="eentropy">     -0.01108304 </i>
    <i name="bandstr">  -1764.02960327 </i>
    <i name="atom">  21743.34108040 </i>
    <i name="e_fr_energy">   2243.12347233 </i>
    <i name="e_wo_entrp">   2243.13455537 </i>
    <i name="e_0_energy">   2243.12901385 </i>
   </energy>
  </scstep>
  <scstep>
   <time name="dav">   89.79   90.27</time>
   <time name="total">   89.80   90.27</time>
   <energy>
    <i name="e_fr_energy">     15.59912697 </i>
    <i name="e_wo_entrp">     15.60123080 </i>
    <i name="e_0_energy">     15.60017889 </i>
   </energy>
  </scstep>
  <scstep>
   <time name="dav">   79.60   80.02</time>
   <time name="total">   79.60   80.02</time>
   <energy>
    <i name="e_fr_energy">   -195.15434119 </i>
    <i name="e_wo_entrp">   -195.15434119 </i>
    <i name="e_0_energy">   -195.15434119 </i>
   </energy>
  </scstep>
  <scstep>
   <time name="dav">   87.41   87.85</time>
   <time name="total">   87.41   87.86</time>
   <energy>
    <i name="e_fr_energy">   -203.33236058 </i>
    <i name="e_wo_entrp">   -203.33236058 </i>
    <i name="e_0_energy">   -203.33236058 </i>
   </energy>
  </scstep>
  <scstep>
   <time name="dav">   93.19   93.67</time>
   <time name="total">   99.53  100.03</time>
   <energy>
    <i name="e_fr_energy">   -203.59143485 </i>
    <i name="e_wo_entrp">   -203.59143485 </i>
    <i name="e_0_energy">   -203.59143485 </i>
   </energy>
  </scstep>
  <scstep>
   <time name="dav">   78.24   78.65</time>
   <time name="total">   85.21   85.65</time>
   <energy>
    <i name="e_fr_energy">   -194.39384742 </i>
    <i name="e_wo_entrp">   -194.39384742 </i>
    <i name="e_0_energy">   -194.39384742 </i>
   </energy>
  </scstep>
  <scstep>
   <time name="dav">   76.21   76.61</time>
   <time name="total">   82.99   83.42</time>
   <energy>
    <i name="e_fr_energy">   -193.50327691 </i>
    <i name="e_wo_entrp">   -193.50327691 </i>
    <i name="e_0_energy">   -193.50327691 </i>
   </energy>
  </scstep>
  <scstep>
   <time name="dav">   78.80   79.21</time>
   <time name="total">   85.65   86.09</time>
   <energy>
    <i name="e_fr_energy">   -190.88971128 </i>
    <i name="e_wo_entrp">   -190.88971128 </i>
    <i name="e_0_energy">   -190.88971128 </i>
   </energy>
  </scstep>
  <scstep>
   <time name="dav">   84.87   85.32</time>
   <time name="total">   91.63   92.10</time>
   <energy>
    <i name="e_fr_energy">   -190.52794088 </i>
    <i name="e_wo_entrp">   -190.52794088 </i>
    <i name="e_0_energy">   -190.52794088 </i>
   </energy>
  </scstep>
  <scstep>
   <time name="dav">   80.52   81.00</time>
   <time name="total">   87.38   87.90</time>
   <energy>
    <i name="e_fr_energy">   -190.42987980 </i>
    <i name="e_wo_entrp">   -190.42987980 </i>
    <i name="e_0_energy">   -190.42987980 </i>
   </energy>
  </scstep>
  <scstep>
   <time name="dav">   83.86   84.30</time>
   <time name="total">   90.73   91.20</time>
   <energy>
    <i name="e_fr_energy">   -190.41402386 </i>
    <i name="e_wo_entrp">   -190.41402386 </i>
    <i name="e_0_energy">   -190.41402386 </i>
   </energy>
  </scstep>
  <scstep>
   <time name="dav">   79.11   79.53</time>
   <time name="total">   85.97   86.42</time>
   <energy>
    <i name="e_fr_energy">   -190.40020039 </i>
    <i name="e_wo_entrp">   -190.40020039 </i>
    <i name="e_0_energy">   -190.40020039 </i>
   </energy>
  </scstep>
  <scstep>
   <time name="dav">   80.60   81.02</time>
   <time name="total">   87.45   87.89</time>
   <energy>
    <i name="e_fr_energy">   -190.39404590 </i>
    <i name="e_wo_entrp">   -190.39404590 </i>
    <i name="e_0_energy">   -190.39404590 </i>
   </energy>
  </scstep>
  <scstep>
   <time name="dav">   83.78   84.23</time>
   <time name="total">   90.64   91.11</time>
   <energy>
    <i name="e_fr_energy">   -190.39304482 </i>
    <i name="e_wo_entrp">   -190.39304482 </i>
    <i name="e_0_energy">   -190.39304482 </i>
   </energy>
  </scstep>
  <scstep>
   <time name="dav">   80.83   81.25</time>
   <time name="total">   87.64   88.10</time>
   <energy>
    <i name="e_fr_energy">   -190.39237945 </i>
    <i name="e_wo_entrp">   -190.39237945 </i>
    <i name="e_0_energy">   -190.39237945 </i>
   </energy>
  </scstep>
  <scstep>
   <time name="dav">   81.42   81.84</time>
   <time name="total">   88.19   88.64</time>
   <energy>
    <i name="e_fr_energy">   -190.39202410 </i>
    <i name="e_wo_entrp">   -190.39202410 </i>
    <i name="e_0_energy">   -190.39202410 </i>
   </energy>
  </scstep>
  <scstep>
   <time name="dav">   82.00   82.43</time>
   <time name="total">   88.83   89.29</time>
   <energy>
    <i name="e_fr_energy">   -190.39220810 </i>
    <i name="e_wo_entrp">   -190.39220810 </i>
    <i name="e_0_energy">   -190.39220810 </i>
   </energy>
  </scstep>
  <scstep>
   <time name="dav">   85.53   85.98</time>
   <time name="total">   92.29   92.76</time>
   <energy>
    <i name="e_fr_energy">   -190.39253513 </i>
    <i name="e_wo_entrp">   -190.39253513 </i>
    <i name="e_0_energy">   -190.39253513 </i>
   </energy>
  </scstep>
  <scstep>
   <time name="dav">   78.77   79.17</time>
   <time name="total">   85.51   85.96</time>
   <energy>
    <i name="e_fr_energy">   -190.39303839 </i>
    <i name="e_wo_entrp">   -190.39303839 </i>
    <i name="e_0_energy">   -190.39303839 </i>
   </energy>
  </scstep>
  <scstep>
   <time name="dav">   77.99   78.45</time>
   <time name="total">   84.73   85.23</time>
   <energy>
    <i name="e_fr_energy">   -190.39346990 </i>
    <i name="e_wo_entrp">   -190.39346990 </i>
    <i name="e_0_energy">   -190.39346990 </i>
   </energy>
  </scstep>
  <scstep>
   <time name="dav">   85.36   85.86</time>
   <time name="total">   92.06   92.59</time>
   <energy>
    <i name="e_fr_energy">   -190.39359824 </i>
    <i name="e_wo_entrp">   -190.39359824 </i>
    <i name="e_0_energy">   -190.39359824 </i>
   </energy>
  </scstep>
  <scstep>
   <time name="dav">   70.44   70.86</time>
   <time name="total">   77.17   77.62</time>
   <energy>
    <i name="e_fr_energy">   -190.39370305 </i>
    <i name="e_wo_entrp">   -190.39370305 </i>
    <i name="e_0_energy">   -190.39370305 </i>
   </energy>
  </scstep>
  <scstep>
   <time name="dav">   71.16   71.58</time>
   <time name="total">   77.88   78.34</time>
   <energy>
    <i name="e_fr_energy">   -190.39380975 </i>
    <i name="e_wo_entrp">   -190.39380975 </i>
    <i name="e_0_energy">   -190.39380975 </i>
   </energy>
  </scstep>
  <scstep>
   <time name="dav">   64.24   64.60</time>
   <time name="total">   70.95   71.35</time>
   <energy>
    <i name="e_fr_energy">   -190.39389321 </i>
    <i name="e_wo_entrp">   -190.39389321 </i>
    <i name="e_0_energy">   -190.39389321 </i>
   </energy>
  </scstep>
  <scstep>
   <time name="dav">   62.08   62.44</time>
   <time name="total">   68.78   69.17</time>
   <energy>
    <i name="e_fr_energy">   -190.39393931 </i>
    <i name="e_wo_entrp">   -190.39393931 </i>
    <i name="e_0_energy">   -190.39393931 </i>
   </energy>
  </scstep>
  <scstep>
   <time name="dav">   55.93   56.26</time>
   <time name="total">   62.62   62.98</time>
   <energy>
    <i name="e_fr_energy">   -190.39404756 </i>
    <i name="e_wo_entrp">   -190.39404756 </i>
    <i name="e_0_energy">   -190.39404756 </i>
   </energy>
  </scstep>
  <scstep>
   <time name="dav">   58.46   58.83</time>
   <time name="total">   65.17   65.56</time>
   <energy>
    <i name="e_fr_energy">   -190.39413101 </i>
    <i name="e_wo_entrp">   -190.39413101 </i>
    <i name="e_0_energy">   -190.39413101 </i>
   </energy>
  </scstep>
  <scstep>
   <time name="dav">   54.95   55.27</time>
   <time name="total">   61.62   61.98</time>
   <energy>
    <i name="e_fr_energy">   -190.39416002 </i>
    <i name="e_wo_entrp">   -190.39416002 </i>
    <i name="e_0_energy">   -190.39416002 </i>
   </energy>
  </scstep>
  <scstep>
   <time name="dav">   55.75   56.09</time>
   <time name="total">   62.46   62.82</time>
   <energy>
    <i name="e_fr_energy">   -190.39418493 </i>
    <i name="e_wo_entrp">   -190.39418493 </i>
    <i name="e_0_energy">   -190.39418493 </i>
   </energy>
  </scstep>
  <scstep>
   <time name="dav">   55.44   55.79</time>
   <time name="total">   62.13   62.51</time>
   <energy>
    <i name="e_fr_energy">   -190.39420244 </i>
    <i name="e_wo_entrp">   -190.39420244 </i>
    <i name="e_0_energy">   -190.39420244 </i>
   </energy>
  </scstep>
  <scstep>
   <time name="dav">   48.89   49.18</time>
   <time name="total">   55.58   55.90</time>
   <energy>
    <i name="e_fr_energy">   -190.39420712 </i>
    <i name="e_wo_entrp">   -190.39420712 </i>
    <i name="e_0_energy">   -190.39420712 </i>
   </energy>
  </scstep>
  <scstep>
   <time name="dav">   47.32   47.60</time>
   <time name="total">   53.99   54.30</time>
   <energy>
    <i name="e_fr_energy">   -190.39420934 </i>
    <i name="e_wo_entrp">   -190.39420934 </i>
    <i name="e_0_energy">   -190.39420934 </i>
   </energy>
  </scstep>
  <scstep>
   <time name="dav">   45.35   45.64</time>
   <time name="total">   45.88   46.18</time>
   <energy>
    <i name="alphaZ">    266.37941352 </i>
    <i name="ewald">  40756.42536599 </i>
    <i name="hartreedc"> -59790.72499914 </i>
    <i name="XCdc">    818.66954241 </i>
    <i name="pawpsdc">  26814.30262224 </i>
    <i name="pawaedc"> -26625.51302137 </i>
    <i name="eentropy">     -0.00000000 </i>
    <i name="bandstr">  -4173.27421420 </i>
    <i name="atom">  21743.34108040 </i>
    <i name="e_fr_energy">   -190.39421015 </i>
    <i name="e_wo_entrp">   -190.39421015 </i>
    <i name="e_0_energy">   -190.39421015 </i>
   </energy>
  </scstep>
  <structure>
   <crystal>
    <varray name="basis" >
     <v>       9.56424100       0.00000000       0.00000000 </v>
     <v>      -4.78212000       8.28287600       0.00000000 </v>
     <v>      -0.00000000       0.00000000      18.15827300 </v>
    </varray>
    <i name="volume">   1438.48789588 </i>
    <varray name="rec_basis" >
     <v>       0.10455613       0.06036550       0.00000000 </v>
     <v>       0.00000000       0.12073101      -0.00000000 </v>
     <v>       0.00000000      -0.00000000       0.05507132 </v>
    </varray>
   </crystal>
   <varray name="positions" >
    <v>       0.03061442       0.01058128       0.49932784 </v>
    <v>       0.30540122       0.34633768       0.50096340 </v>
    <v>       0.65252153       0.01333618       0.49798269 </v>
    <v>       0.32887868       0.97146900       0.49984040 </v>
    <v>       0.36479140       0.68335009       0.50210497 </v>
    <v>       0.70801184       0.34922901       0.49440647 </v>
    <v>       0.98178195       0.29639323       0.49548109 </v>
    <v>       0.64536267       0.63485308       0.50209939 </v>
    <v>       0.97714385       0.67867000       0.49956488 </v>
    <v>       0.56153966       0.12926475       0.58489486 </v>
    <v>       0.23026744       0.10832415       0.58979743 </v>
    <v>       0.12107185       0.22853476       0.40432752 </v>
    <v>       0.20452711       0.45589187       0.58297738 </v>
    <v>       0.11615640       0.56512637       0.43342774 </v>
    <v>       0.21741370       0.77672885       0.58721071 </v>
    <v>       0.12310539       0.88174870       0.40968696 </v>
    <v>       0.45136487       0.23025761       0.43594832 </v>
    <v>       0.45392333       0.88659254       0.40864337 </v>
    <v>       0.54118478       0.42193645       0.58758446 </v>
    <v>       0.55884955       0.79227649       0.58943167 </v>
    <v>       0.44251448       0.56165697       0.41122924 </v>
    <v>       0.87776432       0.10485622       0.58412814 </v>
    <v>       0.78032100       0.21290096       0.40670673 </v>
    <v>       0.90823636       0.45485721       0.58262196 </v>
    <v>       0.76504917       0.55139167       0.41031696 </v>
    <v>       0.88934378       0.79914074       0.58442118 </v>
    <v>       0.77379999       0.88572806       0.43126581 </v>
   </varray>
  </structure>
  <varray name="forces" >
   <v>       0.74376613       1.24978428      -1.09613220 </v>
   <v>       1.18769868       0.57431262       0.07754659 </v>
   <v>      -0.95305602       0.70513959       0.69581257 </v>
   <v>      -0.41704781      -0.10706306       0.01180162 </v>
   <v>      -0.01047319       0.52844514      -0.44855574 </v>
   <v>      -0.37595638      -0.17849187       1.29864296 </v>
   <v>       0.37478174       0.55943561      -0.12592241 </v>
   <v>       0.02304928      -0.61159930       1.01359434 </v>
   <v>      -0.13660855       0.75813230      -0.29863664 </v>
   <v>       0.07243724      -0.46426599       0.12677114 </v>
   <v>      -0.44769861       0.36897557      -0.63897087 </v>
   <v>      -0.47464901      -0.69805014       0.33260945 </v>
   <v>       0.53979137      -0.59323144       0.94002043 </v>
   <v>      -0.18351748      -0.82658979      -0.44486338 </v>
   <v>       0.14441685      -0.22774483       0.30712503 </v>
   <v>      -0.98979260       0.51545113      -0.20695288 </v>
   <v>      -0.65668818      -0.58558059      -0.53898507 </v>
   <v>      -0.75391682      -0.09405610      -0.35516853 </v>
   <v>       0.26884734       0.97750280      -0.43478001 </v>
   <v>       0.91944476      -0.42994096       0.43346433 </v>
   <v>       0.20867514      -0.59712748      -0.14833063 </v>
   <v>       0.88888508      -0.24048730       0.50336260 </v>
   <v>      -0.43984495       0.49451393      -1.15600636 </v>
   <v>      -0.31842286      -0.41543544       0.40448607 </v>
   <v>       0.31333626       0.84820712      -0.91595215 </v>
   <v>      -0.32066312      -1.38400162       0.82996458 </v>
   <v>       0.79320570      -0.12623418      -0.16594484 </v>
  </varray>
  <varray name="stress" >
   <v>      19.22464830       2.22674900       7.11071069 </v>
   <v>       2.22674889      18.70535704      -2.88731366 </v>
   <v>       7.11071063      -2.88731361       9.81205756 </v>
  </varray>
  <energy>
   <i name="e_fr_energy">   -190.39421015 </i>
   <i name="e_wo_entrp">   -190.39421015 </i>
   <i name="e_0_energy">     -0.00000000 </i>
  </energy>
  <time name="totalsc"> 2734.19 2749.01</time>
  <eigenvalues>
   <array>
    <dimension dim="1">band</dimension>
    <dimension dim="2">kpoint</dimension>
    <dimension dim="3">spin</dimension>
    <field>eigene</field>
    <field>occ</field>
    <set>
     <set comment="spin 1">
      <set comment="kpoint 1">
       <r>  -62.5359    1.0000 </r>
       <r>  -62.5183    1.0000 </r>
       <r>  -62.4777    1.0000 </r>
       <r>  -62.4453    1.0000 </r>
       <r>  -62.4247    1.0000 </r>
       <r>  -62.4109    1.0000 </r>
       <r>  -62.3663    1.0000 </r>
       <r>  -62.3317    1.0000 </r>
       <r>  -62.3145    1.0000 </r>
       <r>  -36.9101    1.0000 </r>
       <r>  -36.8504    1.0000 </r>
       <r>  -36.8327    1.0000 </r>
       <r>  -36.8287    1.0000 </r>
       <r>  -36.7981    1.0000 </r>
       <r>  -36.7803    1.0000 </r>
       <r>  -36.7631    1.0000 </r>
       <r>  -36.7196    1.0000 </r>
       <r>  -36.7064    1.0000 </r>
       <r>  -36.6348    1.0000 </r>
       <r>  -36.5888    1.0000 </r>
       <r>  -36.5784    1.0000 </r>
       <r>  -36.5293    1.0000 </r>
       <r>  -36.5240    1.0000 </r>
       <r>  -36.5095    1.0000 </r>
       <r>  -36.4889    1.0000 </r>
       <r>  -36.4857    1.0000 </r>
       <r>  -36.4656    1.0000 </r>
       <r>  -36.4567    1.0000 </r>
       <r>  -36.4457    1.0000 </r>
       <r>  -36.4269    1.0000 </r>
       <r>  -36.4214    1.0000 </r>
       <r>  -36.4000    1.0000 </r>
       <r>  -36.3837    1.0000 </r>
       <r>  -36.3617    1.0000 </r>
       <r>  -36.3328    1.0000 </r>
       <r>  -36.3257    1.0000 </r>
       <r>  -15.7258    1.0000 </r>
       <r>  -14.6731    1.0000 </r>
       <r>  -14.5508    1.0000 </r>
       <r>  -14.5314    1.0000 </r>
       <r>  -14.4443    1.0000 </r>
       <r>  -14.3531    1.0000 </r>
       <r>  -14.3321    1.0000 </r>
       <r>  -14.3092    1.0000 </r>
       <r>  -14.1065    1.0000 </r>
       <r>  -13.9973    1.0000 </r>
       <r>  -13.9165    1.0000 </r>
       <r>  -13.8620    1.0000 </r>
       <r>  -13.7049    1.0000 </r>
       <r>  -13.6087    1.0000 </r>
       <r>  -13.5676    1.0000 </r>
       <r>  -13.5280    1.0000 </r>
       <r>  -13.4904    1.0000 </r>
       <r>  -13.2079    1.0000 </r>
       <r>   -7.1291    1.0000 </r>
       <r>   -6.8931    1.0000 </r>
       <r>   -6.8712    1.0000 </r>
       <r>   -6.8396    1.0000 </r>
       <r>   -6.7779    1.0000 </r>
       <r>   -6.7280    1.0000 </r>
       <r>   -6.6720    1.0000 </r>
       <r>   -6.5995    1.0000 </r>
       <r>   -6.5340    1.0000 </r>
       <r>   -6.4669    1.0000 </r>
       <r>   -6.4322    1.0000 </r>
       <r>   -6.3893    1.0000 </r>
       <r>   -6.3415    1.0000 </r>
       <r>   -6.2754    1.0000 </r>
       <r>   -6.2254    1.0000 </r>
       <r>   -6.1396    1.0000 </r>
       <r>   -6.0713    1.0000 </r>
       <r>   -6.0463    1.0000 </r>
       <r>   -5.9294    1.0000 </r>
       <r>   -5.4784    1.0000 </r>
       <r>   -5.4516    1.0000 </r>
       <r>   -5.4294    1.0000 </r>
       <r>   -5.3166    1.0000 </r>
       <r>   -5.1856    1.0000 </r>
       <r>   -5.1467    1.0000 </r>
       <r>   -4.9079    1.0000 </r>
       <r>   -4.7981    1.0000 </r>
       <r>   -4.7456    1.0000 </r>
       <r>   -4.7005    1.0000 </r>
       <r>   -4.6439    1.0000 </r>
       <r>   -4.6282    1.0000 </r>
       <r>   -4.5648    1.0000 </r>
       <r>   -4.5094    1.0000 </r>
       <r>   -4.4515    1.0000 </r>
       <r>   -4.3682    1.0000 </r>
       <r>   -4.3055    1.0000 </r>
       <r>   -4.2923    1.0000 </r>
       <r>   -4.2610    1.0000 </r>
       <r>   -4.2133    1.0000 </r>
       <r>   -3.7834    1.0000 </r>
       <r>   -3.7385    1.0000 </r>
       <r>   -3.6835    1.0000 </r>
       <r>   -3.6064    1.0000 </r>
       <r>   -3.4841    1.0000 </r>
       <r>   -3.3618    1.0000 </r>
       <r>   -3.2230    1.0000 </r>
       <r>   -3.0860    1.0000 </r>
       <r>   -2.9931    1.0000 </r>
       <r>   -2.9319    1.0000 </r>
       <r>   -2.8804    1.0000 </r>
       <r>   -2.8498    1.0000 </r>
       <r>   -2.7722    1.0000 </r>
       <r>   -2.5362    1.0000 </r>
       <r>   -2.4489    1.0000 </r>
       <r>   -2.4026    1.0000 </r>
       <r>   -2.3401    1.0000 </r>
       <r>   -2.0359    1.0000 </r>
       <r>   -1.9720    1.0000 </r>
       <r>   -1.8542    1.0000 </r>
       <r>   -1.7895    1.0000 </r>
       <r>   -1.7807    1.0000 </r>
       <r>   -1.6235    1.0000 </r>
       <r>   -1.3319    1.0000 </r>
       <r>   -0.7119    0.0000 </r>
       <r>   -0.3564    0.0000 </r>
       <r>   -0.2569    0.0000 </r>
       <r>   -0.2012    0.0000 </r>
       <r>   -0.1461    0.0000 </r>
       <r>   -0.0892    0.0000 </r>
       <r>   -0.0450    0.0000 </r>
       <r>    0.0264    0.0000 </r>
       <r>    0.0712    0.0000 </r>
       <r>    0.2783    0.0000 </r>
       <r>    0.6469    0.0000 </r>
       <r>    0.7043    0.0000 </r>
       <r>    0.7909    0.0000 </r>
       <r>    0.8188    0.0000 </r>
       <r>    0.8872    0.0000 </r>
       <r>    0.9844    0.0000 </r>
       <r>    1.0569    0.0000 </r>
       <r>    1.1391    0.0000 </r>
       <r>    1.4187    0.0000 </r>
       <r>    1.8524    0.0000 </r>
       <r>    1.8913    0.0000 </r>
       <r>    1.9720    0.0000 </r>
       <r>    1.9902    0.0000 </r>
      </set>
      <set comment="kpoint 2">
       <r>  -62.5359    1.0000 </r>
       <r>  -62.5183    1.0000 </r>
       <r>  -62.4779    1.0000 </r>
       <r>  -62.4451    1.0000 </r>
       <r>  -62.4250    1.0000 </r>
       <r>  -62.4106    1.0000 </r>
       <r>  -62.3663    1.0000 </r>
       <r>  -62.3316    1.0000 </r>
       <r>  -62.3145    1.0000 </r>
       <r>  -36.9123    1.0000 </r>
       <r>  -36.8696    1.0000 </r>
       <r>  -36.8571    1.0000 </r>
       <r>  -36.8100    1.0000 </r>
       <r>  -36.7932    1.0000 </r>
       <r>  -36.7710    1.0000 </r>
       <r>  -36.7517    1.0000 </r>
       <r>  -36.7125    1.0000 </r>
       <r>  -36.6942    1.0000 </r>
       <r>  -36.6319    1.0000 </r>
       <r>  -36.5907    1.0000 </r>
       <r>  -36.5798    1.0000 </r>
       <r>  -36.5364    1.0000 </r>
       <r>  -36.5244    1.0000 </r>
       <r>  -36.5105    1.0000 </r>
       <r>  -36.5029    1.0000 </r>
       <r>  -36.4897    1.0000 </r>
       <r>  -36.4670    1.0000 </r>
       <r>  -36.4572    1.0000 </r>
       <r>  -36.4400    1.0000 </r>
       <r>  -36.4223    1.0000 </r>
       <r>  -36.4188    1.0000 </r>
       <r>  -36.3974    1.0000 </r>
       <r>  -36.3837    1.0000 </r>
       <r>  -36.3606    1.0000 </r>
       <r>  -36.3360    1.0000 </r>
       <r>  -36.3279    1.0000 </r>
       <r>  -15.6786    1.0000 </r>
       <r>  -14.7896    1.0000 </r>
       <r>  -14.6247    1.0000 </r>
       <r>  -14.5217    1.0000 </r>
       <r>  -14.4918    1.0000 </r>
       <r>  -14.3582    1.0000 </r>
       <r>  -14.2654    1.0000 </r>
       <r>  -14.2186    1.0000 </r>
       <r>  -14.1382    1.0000 </r>
       <r>  -14.0004    1.0000 </r>
       <r>  -13.9016    1.0000 </r>
       <r>  -13.8260    1.0000 </r>
       <r>  -13.7295    1.0000 </r>
       <r>  -13.6088    1.0000 </r>
       <r>  -13.5509    1.0000 </r>
       <r>  -13.5131    1.0000 </r>
       <r>  -13.4552    1.0000 </r>
       <r>  -13.2123    1.0000 </r>
       <r>   -7.2014    1.0000 </r>
       <r>   -7.0958    1.0000 </r>
       <r>   -6.9905    1.0000 </r>
       <r>   -6.9452    1.0000 </r>
       <r>   -6.8987    1.0000 </r>
       <r>   -6.7983    1.0000 </r>
       <r>   -6.6884    1.0000 </r>
       <r>   -6.6003    1.0000 </r>
       <r>   -6.5419    1.0000 </r>
       <r>   -6.4695    1.0000 </r>
       <r>   -6.4475    1.0000 </r>
       <r>   -6.3049    1.0000 </r>
       <r>   -6.2095    1.0000 </r>
       <r>   -6.1418    1.0000 </r>
       <r>   -6.0472    1.0000 </r>
       <r>   -6.0081    1.0000 </r>
       <r>   -5.8835    1.0000 </r>
       <r>   -5.8264    1.0000 </r>
       <r>   -5.7146    1.0000 </r>
       <r>   -5.6545    1.0000 </r>
       <r>   -5.5942    1.0000 </r>
       <r>   -5.3570    1.0000 </r>
       <r>   -5.2770    1.0000 </r>
       <r>   -5.1979    1.0000 </r>
       <r>   -5.1464    1.0000 </r>
       <r>   -5.0532    1.0000 </r>
       <r>   -4.9624    1.0000 </r>
       <r>   -4.8191    1.0000 </r>
       <r>   -4.7680    1.0000 </r>
       <r>   -4.7159    1.0000 </r>
       <r>   -4.6402    1.0000 </r>
       <r>   -4.5136    1.0000 </r>
       <r>   -4.4393    1.0000 </r>
       <r>   -4.3987    1.0000 </r>
       <r>   -4.3805    1.0000 </r>
       <r>   -4.2916    1.0000 </r>
       <r>   -4.2584    1.0000 </r>
       <r>   -4.1973    1.0000 </r>
       <r>   -4.1420    1.0000 </r>
       <r>   -3.8363    1.0000 </r>
       <r>   -3.7734    1.0000 </r>
       <r>   -3.7006    1.0000 </r>
       <r>   -3.6163    1.0000 </r>
       <r>   -3.5760    1.0000 </r>
       <r>   -3.4523    1.0000 </r>
       <r>   -3.2378    1.0000 </r>
       <r>   -3.1833    1.0000 </r>
       <r>   -2.9731    1.0000 </r>
       <r>   -2.9046    1.0000 </r>
       <r>   -2.8148    1.0000 </r>
       <r>   -2.7349    1.0000 </r>
       <r>   -2.6418    1.0000 </r>
       <r>   -2.5492    1.0000 </r>
       <r>   -2.4876    1.0000 </r>
       <r>   -2.2696    1.0000 </r>
       <r>   -2.2327    1.0000 </r>
       <r>   -2.1582    1.0000 </r>
       <r>   -2.0079    1.0000 </r>
       <r>   -1.8909    1.0000 </r>
       <r>   -1.8294    1.0000 </r>
       <r>   -1.7707    1.0000 </r>
       <r>   -1.6753    1.0000 </r>
       <r>   -1.4114    1.0000 </r>
       <r>   -0.7176    0.0000 </r>
       <r>   -0.3259    0.0000 </r>
       <r>   -0.3050    0.0000 </r>
       <r>   -0.2117    0.0000 </r>
       <r>   -0.1539    0.0000 </r>
       <r>   -0.1030    0.0000 </r>
       <r>   -0.0129    0.0000 </r>
       <r>    0.1129    0.0000 </r>
       <r>    0.1594    0.0000 </r>
       <r>    0.3116    0.0000 </r>
       <r>    0.5617    0.0000 </r>
       <r>    0.6845    0.0000 </r>
       <r>    0.7779    0.0000 </r>
       <r>    0.8519    0.0000 </r>
       <r>    0.9728    0.0000 </r>
       <r>    1.0570    0.0000 </r>
       <r>    1.0945    0.0000 </r>
       <r>    1.1819    0.0000 </r>
       <r>    1.4135    0.0000 </r>
       <r>    1.5486    0.0000 </r>
       <r>    1.7015    0.0000 </r>
       <r>    1.8136    0.0000 </r>
       <r>    1.9646    0.0000 </r>
      </set>
      <set comment="kpoint 3">
       <r>  -62.5357    1.0000 </r>
       <r>  -62.5183    1.0000 </r>
       <r>  -62.4783    1.0000 </r>
       <r>  -62.4447    1.0000 </r>
       <r>  -62.4257    1.0000 </r>
       <r>  -62.4101    1.0000 </r>
       <r>  -62.3664    1.0000 </r>
       <r>  -62.3315    1.0000 </r>
       <r>  -62.3146    1.0000 </r>
       <r>  -36.9144    1.0000 </r>
       <r>  -36.8956    1.0000 </r>
       <r>  -36.8784    1.0000 </r>
       <r>  -36.8023    1.0000 </r>
       <r>  -36.7939    1.0000 </r>
       <r>  -36.7502    1.0000 </r>
       <r>  -36.7297    1.0000 </r>
       <r>  -36.6972    1.0000 </r>
       <r>  -36.6697    1.0000 </r>
       <r>  -36.6273    1.0000 </r>
       <r>  -36.5949    1.0000 </r>
       <r>  -36.5821    1.0000 </r>
       <r>  -36.5560    1.0000 </r>
       <r>  -36.5302    1.0000 </r>
       <r>  -36.5199    1.0000 </r>
       <r>  -36.5039    1.0000 </r>
       <r>  -36.4972    1.0000 </r>
       <r>  -36.4715    1.0000 </r>
       <r>  -36.4625    1.0000 </r>
       <r>  -36.4312    1.0000 </r>
       <r>  -36.4192    1.0000 </r>
       <r>  -36.4113    1.0000 </r>
       <r>  -36.3966    1.0000 </r>
       <r>  -36.3816    1.0000 </r>
       <r>  -36.3578    1.0000 </r>
       <r>  -36.3421    1.0000 </r>
       <r>  -36.3324    1.0000 </r>
       <r>  -15.5409    1.0000 </r>
       <r>  -15.0521    1.0000 </r>
       <r>  -14.7080    1.0000 </r>
       <r>  -14.5527    1.0000 </r>
       <r>  -14.4803    1.0000 </r>
       <r>  -14.3492    1.0000 </r>
       <r>  -14.1929    1.0000 </r>
       <r>  -14.1461    1.0000 </r>
       <r>  -14.1027    1.0000 </r>
       <r>  -14.0038    1.0000 </r>
       <r>  -13.8912    1.0000 </r>
       <r>  -13.8518    1.0000 </r>
       <r>  -13.7363    1.0000 </r>
       <r>  -13.6766    1.0000 </r>
       <r>  -13.5416    1.0000 </r>
       <r>  -13.4115    1.0000 </r>
       <r>  -13.3583    1.0000 </r>
       <r>  -13.2378    1.0000 </r>
       <r>   -7.5652    1.0000 </r>
       <r>   -7.2104    1.0000 </r>
       <r>   -7.1336    1.0000 </r>
       <r>   -7.0392    1.0000 </r>
       <r>   -6.9681    1.0000 </r>
       <r>   -6.8665    1.0000 </r>
       <r>   -6.6846    1.0000 </r>
       <r>   -6.4912    1.0000 </r>
       <r>   -6.4604    1.0000 </r>
       <r>   -6.4037    1.0000 </r>
       <r>   -6.3537    1.0000 </r>
       <r>   -6.2638    1.0000 </r>
       <r>   -6.2405    1.0000 </r>
       <r>   -6.0363    1.0000 </r>
       <r>   -5.9461    1.0000 </r>
       <r>   -5.9003    1.0000 </r>
       <r>   -5.8363    1.0000 </r>
       <r>   -5.6818    1.0000 </r>
       <r>   -5.5672    1.0000 </r>
       <r>   -5.4373    1.0000 </r>
       <r>   -5.3910    1.0000 </r>
       <r>   -5.3409    1.0000 </r>
       <r>   -5.2689    1.0000 </r>
       <r>   -5.2307    1.0000 </r>
       <r>   -5.1650    1.0000 </r>
       <r>   -5.1047    1.0000 </r>
       <r>   -5.0548    1.0000 </r>
       <r>   -4.9463    1.0000 </r>
       <r>   -4.8590    1.0000 </r>
       <r>   -4.7964    1.0000 </r>
       <r>   -4.6764    1.0000 </r>
       <r>   -4.5295    1.0000 </r>
       <r>   -4.4849    1.0000 </r>
       <r>   -4.3869    1.0000 </r>
       <r>   -4.3604    1.0000 </r>
       <r>   -4.2308    1.0000 </r>
       <r>   -4.1047    1.0000 </r>
       <r>   -4.0553    1.0000 </r>
       <r>   -4.0237    1.0000 </r>
       <r>   -3.9633    1.0000 </r>
       <r>   -3.9262    1.0000 </r>
       <r>   -3.8531    1.0000 </r>
       <r>   -3.8066    1.0000 </r>
       <r>   -3.6886    1.0000 </r>
       <r>   -3.4202    1.0000 </r>
       <r>   -3.3427    1.0000 </r>
       <r>   -3.3015    1.0000 </r>
       <r>   -2.8558    1.0000 </r>
       <r>   -2.8063    1.0000 </r>
       <r>   -2.7430    1.0000 </r>
       <r>   -2.6278    1.0000 </r>
       <r>   -2.5768    1.0000 </r>
       <r>   -2.4974    1.0000 </r>
       <r>   -2.4190    1.0000 </r>
       <r>   -2.2799    1.0000 </r>
       <r>   -2.1777    1.0000 </r>
       <r>   -2.1500    1.0000 </r>
       <r>   -2.0507    1.0000 </r>
       <r>   -1.9611    1.0000 </r>
       <r>   -1.8433    1.0000 </r>
       <r>   -1.7987    1.0000 </r>
       <r>   -1.7155    1.0000 </r>
       <r>   -1.5511    1.0000 </r>
       <r>   -0.6972    0.0000 </r>
       <r>   -0.4818    0.0000 </r>
       <r>   -0.3183    0.0000 </r>
       <r>   -0.2374    0.0000 </r>
       <r>   -0.1024    0.0000 </r>
       <r>   -0.0098    0.0000 </r>
       <r>    0.0764    0.0000 </r>
       <r>    0.1560    0.0000 </r>
       <r>    0.2656    0.0000 </r>
       <r>    0.4139    0.0000 </r>
       <r>    0.5311    0.0000 </r>
       <r>    0.6197    0.0000 </r>
       <r>    0.8663    0.0000 </r>
       <r>    0.9788    0.0000 </r>
       <r>    1.0560    0.0000 </r>
       <r>    1.0987    0.0000 </r>
       <r>    1.1402    0.0000 </r>
       <r>    1.2309    0.0000 </r>
       <r>    1.2845    0.0000 </r>
       <r>    1.3668    0.0000 </r>
       <r>    1.4518    0.0000 </r>
       <r>    1.6445    0.0000 </r>
       <r>    1.7624    0.0000 </r>
      </set>
      <set comment="kpoint 4">
       <r>  -62.5356    1.0000 </r>
       <r>  -62.5183    1.0000 </r>
       <r>  -62.4785    1.0000 </r>
       <r>  -62.4445    1.0000 </r>
       <r>  -62.4260    1.0000 </r>
       <r>  -62.4098    1.0000 </r>
       <r>  -62.3665    1.0000 </r>
       <r>  -62.3314    1.0000 </r>
       <r>  -62.3147    1.0000 </r>
       <r>  -36.9147    1.0000 </r>
       <r>  -36.9032    1.0000 </r>
       <r>  -36.8898    1.0000 </r>
       <r>  -36.8007    1.0000 </r>
       <r>  -36.7950    1.0000 </r>
       <r>  -36.7416    1.0000 </r>
       <r>  -36.7132    1.0000 </r>
       <r>  -36.6925    1.0000 </r>
       <r>  -36.6565    1.0000 </r>
       <r>  -36.6302    1.0000 </r>
       <r>  -36.5916    1.0000 </r>
       <r>  -36.5831    1.0000 </r>
       <r>  -36.5698    1.0000 </r>
       <r>  -36.5340    1.0000 </r>
       <r>  -36.5229    1.0000 </r>
       <r>  -36.5036    1.0000 </r>
       <r>  -36.4997    1.0000 </r>
       <r>  -36.4747    1.0000 </r>
       <r>  -36.4637    1.0000 </r>
       <r>  -36.4279    1.0000 </r>
       <r>  -36.4205    1.0000 </r>
       <r>  -36.4051    1.0000 </r>
       <r>  -36.4001    1.0000 </r>
       <r>  -36.3794    1.0000 </r>
       <r>  -36.3560    1.0000 </r>
       <r>  -36.3446    1.0000 </r>
       <r>  -36.3350    1.0000 </r>
       <r>  -15.3442    1.0000 </r>
       <r>  -15.3024    1.0000 </r>
       <r>  -14.7347    1.0000 </r>
       <r>  -14.5719    1.0000 </r>
       <r>  -14.4578    1.0000 </r>
       <r>  -14.3690    1.0000 </r>
       <r>  -14.1587    1.0000 </r>
       <r>  -14.1394    1.0000 </r>
       <r>  -14.0292    1.0000 </r>
       <r>  -13.9790    1.0000 </r>
       <r>  -13.9223    1.0000 </r>
       <r>  -13.8636    1.0000 </r>
       <r>  -13.8109    1.0000 </r>
       <r>  -13.6456    1.0000 </r>
       <r>  -13.5605    1.0000 </r>
       <r>  -13.3486    1.0000 </r>
       <r>  -13.2946    1.0000 </r>
       <r>  -13.2755    1.0000 </r>
       <r>   -7.7034    1.0000 </r>
       <r>   -7.2770    1.0000 </r>
       <r>   -7.2005    1.0000 </r>
       <r>   -7.0945    1.0000 </r>
       <r>   -7.0308    1.0000 </r>
       <r>   -6.6628    1.0000 </r>
       <r>   -6.6379    1.0000 </r>
       <r>   -6.6025    1.0000 </r>
       <r>   -6.4206    1.0000 </r>
       <r>   -6.3942    1.0000 </r>
       <r>   -6.2966    1.0000 </r>
       <r>   -6.2409    1.0000 </r>
       <r>   -6.2237    1.0000 </r>
       <r>   -6.0166    1.0000 </r>
       <r>   -5.9980    1.0000 </r>
       <r>   -5.8994    1.0000 </r>
       <r>   -5.7887    1.0000 </r>
       <r>   -5.7096    1.0000 </r>
       <r>   -5.5179    1.0000 </r>
       <r>   -5.4461    1.0000 </r>
       <r>   -5.3740    1.0000 </r>
       <r>   -5.3222    1.0000 </r>
       <r>   -5.2785    1.0000 </r>
       <r>   -5.1875    1.0000 </r>
       <r>   -5.1449    1.0000 </r>
       <r>   -5.0278    1.0000 </r>
       <r>   -4.9432    1.0000 </r>
       <r>   -4.8751    1.0000 </r>
       <r>   -4.8076    1.0000 </r>
       <r>   -4.7861    1.0000 </r>
       <r>   -4.6317    1.0000 </r>
       <r>   -4.6113    1.0000 </r>
       <r>   -4.4774    1.0000 </r>
       <r>   -4.4146    1.0000 </r>
       <r>   -4.3540    1.0000 </r>
       <r>   -4.2725    1.0000 </r>
       <r>   -4.2300    1.0000 </r>
       <r>   -4.1372    1.0000 </r>
       <r>   -4.1081    1.0000 </r>
       <r>   -3.9585    1.0000 </r>
       <r>   -3.8899    1.0000 </r>
       <r>   -3.8325    1.0000 </r>
       <r>   -3.7984    1.0000 </r>
       <r>   -3.7229    1.0000 </r>
       <r>   -3.4625    1.0000 </r>
       <r>   -3.3185    1.0000 </r>
       <r>   -3.2249    1.0000 </r>
       <r>   -3.1194    1.0000 </r>
       <r>   -2.7772    1.0000 </r>
       <r>   -2.6904    1.0000 </r>
       <r>   -2.6602    1.0000 </r>
       <r>   -2.5331    1.0000 </r>
       <r>   -2.4031    1.0000 </r>
       <r>   -2.3312    1.0000 </r>
       <r>   -2.3198    1.0000 </r>
       <r>   -2.2027    1.0000 </r>
       <r>   -2.1349    1.0000 </r>
       <r>   -2.0090    1.0000 </r>
       <r>   -1.9485    1.0000 </r>
       <r>   -1.8712    1.0000 </r>
       <r>   -1.7760    1.0000 </r>
       <r>   -1.6814    1.0000 </r>
       <r>   -1.6696    1.0000 </r>
       <r>   -0.6424    0.0000 </r>
       <r>   -0.5928    0.0000 </r>
       <r>   -0.3536    0.0000 </r>
       <r>   -0.2292    0.0000 </r>
       <r>   -0.1030    0.0000 </r>
       <r>    0.0287    0.0000 </r>
       <r>    0.1311    0.0000 </r>
       <r>    0.1800    0.0000 </r>
       <r>    0.3149    0.0000 </r>
       <r>    0.5075    0.0000 </r>
       <r>    0.5279    0.0000 </r>
       <r>    0.6181    0.0000 </r>
       <r>    0.8994    0.0000 </r>
       <r>    1.0269    0.0000 </r>
       <r>    1.0576    0.0000 </r>
       <r>    1.1170    0.0000 </r>
       <r>    1.1555    0.0000 </r>
       <r>    1.1674    0.0000 </r>
       <r>    1.2887    0.0000 </r>
       <r>    1.3015    0.0000 </r>
       <r>    1.3759    0.0000 </r>
       <r>    1.5812    0.0000 </r>
       <r>    1.6717    0.0000 </r>
      </set>
      <set comment="kpoint 5">
       <r>  -62.5359    1.0000 </r>
       <r>  -62.5183    1.0000 </r>
       <r>  -62.4778    1.0000 </r>
       <r>  -62.4452    1.0000 </r>
       <r>  -62.4251    1.0000 </r>
       <r>  -62.4105    1.0000 </r>
       <r>  -62.3662    1.0000 </r>
       <r>  -62.3317    1.0000 </r>
       <r>  -62.3146    1.0000 </r>
       <r>  -36.9127    1.0000 </r>
       <r>  -36.8676    1.0000 </r>
       <r>  -36.8547    1.0000 </r>
       <r>  -36.8164    1.0000 </r>
       <r>  -36.7928    1.0000 </r>
       <r>  -36.7746    1.0000 </r>
       <r>  -36.7519    1.0000 </r>
       <r>  -36.7076    1.0000 </r>
       <r>  -36.6879    1.0000 </r>
       <r>  -36.6339    1.0000 </r>
       <r>  -36.5932    1.0000 </r>
       <r>  -36.5784    1.0000 </r>
       <r>  -36.5372    1.0000 </r>
       <r>  -36.5250    1.0000 </r>
       <r>  -36.5145    1.0000 </r>
       <r>  -36.4978    1.0000 </r>
       <r>  -36.4845    1.0000 </r>
       <r>  -36.4750    1.0000 </r>
       <r>  -36.4574    1.0000 </r>
       <r>  -36.4444    1.0000 </r>
       <r>  -36.4249    1.0000 </r>
       <r>  -36.4174    1.0000 </r>
       <r>  -36.3944    1.0000 </r>
       <r>  -36.3798    1.0000 </r>
       <r>  -36.3602    1.0000 </r>
       <r>  -36.3361    1.0000 </r>
       <r>  -36.3283    1.0000 </r>
       <r>  -15.6787    1.0000 </r>
       <r>  -14.7881    1.0000 </r>
       <r>  -14.6426    1.0000 </r>
       <r>  -14.5300    1.0000 </r>
       <r>  -14.4448    1.0000 </r>
       <r>  -14.3633    1.0000 </r>
       <r>  -14.2695    1.0000 </r>
       <r>  -14.2375    1.0000 </r>
       <r>  -14.1084    1.0000 </r>
       <r>  -14.0279    1.0000 </r>
       <r>  -13.8965    1.0000 </r>
       <r>  -13.8248    1.0000 </r>
       <r>  -13.7502    1.0000 </r>
       <r>  -13.6022    1.0000 </r>
       <r>  -13.5586    1.0000 </r>
       <r>  -13.5099    1.0000 </r>
       <r>  -13.4362    1.0000 </r>
       <r>  -13.2149    1.0000 </r>
       <r>   -7.2025    1.0000 </r>
       <r>   -7.0821    1.0000 </r>
       <r>   -7.0022    1.0000 </r>
       <r>   -6.9412    1.0000 </r>
       <r>   -6.8877    1.0000 </r>
       <r>   -6.8167    1.0000 </r>
       <r>   -6.7176    1.0000 </r>
       <r>   -6.5893    1.0000 </r>
       <r>   -6.5530    1.0000 </r>
       <r>   -6.5089    1.0000 </r>
       <r>   -6.3968    1.0000 </r>
       <r>   -6.2988    1.0000 </r>
       <r>   -6.2177    1.0000 </r>
       <r>   -6.1261    1.0000 </r>
       <r>   -6.0408    1.0000 </r>
       <r>   -5.9968    1.0000 </r>
       <r>   -5.8517    1.0000 </r>
       <r>   -5.7855    1.0000 </r>
       <r>   -5.7696    1.0000 </r>
       <r>   -5.6734    1.0000 </r>
       <r>   -5.5859    1.0000 </r>
       <r>   -5.3457    1.0000 </r>
       <r>   -5.2754    1.0000 </r>
       <r>   -5.2104    1.0000 </r>
       <r>   -5.1435    1.0000 </r>
       <r>   -5.0858    1.0000 </r>
       <r>   -4.9572    1.0000 </r>
       <r>   -4.8360    1.0000 </r>
       <r>   -4.7912    1.0000 </r>
       <r>   -4.7230    1.0000 </r>
       <r>   -4.6257    1.0000 </r>
       <r>   -4.4978    1.0000 </r>
       <r>   -4.4499    1.0000 </r>
       <r>   -4.3820    1.0000 </r>
       <r>   -4.3558    1.0000 </r>
       <r>   -4.2907    1.0000 </r>
       <r>   -4.2625    1.0000 </r>
       <r>   -4.2121    1.0000 </r>
       <r>   -4.1597    1.0000 </r>
       <r>   -3.7983    1.0000 </r>
       <r>   -3.7687    1.0000 </r>
       <r>   -3.6759    1.0000 </r>
       <r>   -3.6374    1.0000 </r>
       <r>   -3.5294    1.0000 </r>
       <r>   -3.4781    1.0000 </r>
       <r>   -3.2431    1.0000 </r>
       <r>   -3.1424    1.0000 </r>
       <r>   -3.0221    1.0000 </r>
       <r>   -2.9668    1.0000 </r>
       <r>   -2.8251    1.0000 </r>
       <r>   -2.7483    1.0000 </r>
       <r>   -2.6601    1.0000 </r>
       <r>   -2.4777    1.0000 </r>
       <r>   -2.4468    1.0000 </r>
       <r>   -2.3178    1.0000 </r>
       <r>   -2.2189    1.0000 </r>
       <r>   -2.0944    1.0000 </r>
       <r>   -2.0305    1.0000 </r>
       <r>   -1.9673    1.0000 </r>
       <r>   -1.8127    1.0000 </r>
       <r>   -1.7883    1.0000 </r>
       <r>   -1.6133    1.0000 </r>
       <r>   -1.4236    1.0000 </r>
       <r>   -0.7236    0.0000 </r>
       <r>   -0.3118    0.0000 </r>
       <r>   -0.2910    0.0000 </r>
       <r>   -0.2121    0.0000 </r>
       <r>   -0.1704    0.0000 </r>
       <r>   -0.1148    0.0000 </r>
       <r>   -0.0016    0.0000 </r>
       <r>    0.0664    0.0000 </r>
       <r>    0.1769    0.0000 </r>
       <r>    0.3207    0.0000 </r>
       <r>    0.6033    0.0000 </r>
       <r>    0.6226    0.0000 </r>
       <r>    0.7815    0.0000 </r>
       <r>    0.8630    0.0000 </r>
       <r>    0.9956    0.0000 </r>
       <r>    1.0587    0.0000 </r>
       <r>    1.0800    0.0000 </r>
       <r>    1.1633    0.0000 </r>
       <r>    1.4042    0.0000 </r>
       <r>    1.5743    0.0000 </r>
       <r>    1.7143    0.0000 </r>
       <r>    1.7545    0.0000 </r>
       <r>    2.0027    0.0000 </r>
      </set>
      <set comment="kpoint 6">
       <r>  -62.5358    1.0000 </r>
       <r>  -62.5182    1.0000 </r>
       <r>  -62.4781    1.0000 </r>
       <r>  -62.4447    1.0000 </r>
       <r>  -62.4259    1.0000 </r>
       <r>  -62.4100    1.0000 </r>
       <r>  -62.3663    1.0000 </r>
       <r>  -62.3315    1.0000 </r>
       <r>  -62.3147    1.0000 </r>
       <r>  -36.9149    1.0000 </r>
       <r>  -36.8868    1.0000 </r>
       <r>  -36.8763    1.0000 </r>
       <r>  -36.8068    1.0000 </r>
       <r>  -36.7873    1.0000 </r>
       <r>  -36.7676    1.0000 </r>
       <r>  -36.7296    1.0000 </r>
       <r>  -36.6957    1.0000 </r>
       <r>  -36.6677    1.0000 </r>
       <r>  -36.6305    1.0000 </r>
       <r>  -36.6004    1.0000 </r>
       <r>  -36.5775    1.0000 </r>
       <r>  -36.5522    1.0000 </r>
       <r>  -36.5305    1.0000 </r>
       <r>  -36.5215    1.0000 </r>
       <r>  -36.5060    1.0000 </r>
       <r>  -36.4904    1.0000 </r>
       <r>  -36.4712    1.0000 </r>
       <r>  -36.4617    1.0000 </r>
       <r>  -36.4357    1.0000 </r>
       <r>  -36.4237    1.0000 </r>
       <r>  -36.4143    1.0000 </r>
       <r>  -36.3935    1.0000 </r>
       <r>  -36.3788    1.0000 </r>
       <r>  -36.3571    1.0000 </r>
       <r>  -36.3391    1.0000 </r>
       <r>  -36.3322    1.0000 </r>
       <r>  -15.5848    1.0000 </r>
       <r>  -14.9509    1.0000 </r>
       <r>  -14.7776    1.0000 </r>
       <r>  -14.4971    1.0000 </r>
       <r>  -14.4485    1.0000 </r>
       <r>  -14.3470    1.0000 </r>
       <r>  -14.2395    1.0000 </r>
       <r>  -14.1651    1.0000 </r>
       <r>  -14.0839    1.0000 </r>
       <r>  -14.0299    1.0000 </r>
       <r>  -13.8972    1.0000 </r>
       <r>  -13.8079    1.0000 </r>
       <r>  -13.7731    1.0000 </r>
       <r>  -13.6468    1.0000 </r>
       <r>  -13.5755    1.0000 </r>
       <r>  -13.4319    1.0000 </r>
       <r>  -13.3658    1.0000 </r>
       <r>  -13.2236    1.0000 </r>
       <r>   -7.3895    1.0000 </r>
       <r>   -7.3619    1.0000 </r>
       <r>   -7.1604    1.0000 </r>
       <r>   -6.9793    1.0000 </r>
       <r>   -6.8556    1.0000 </r>
       <r>   -6.8026    1.0000 </r>
       <r>   -6.7031    1.0000 </r>
       <r>   -6.5672    1.0000 </r>
       <r>   -6.4926    1.0000 </r>
       <r>   -6.4415    1.0000 </r>
       <r>   -6.3157    1.0000 </r>
       <r>   -6.2432    1.0000 </r>
       <r>   -6.1757    1.0000 </r>
       <r>   -6.1464    1.0000 </r>
       <r>   -6.0856    1.0000 </r>
       <r>   -5.8043    1.0000 </r>
       <r>   -5.7794    1.0000 </r>
       <r>   -5.6403    1.0000 </r>
       <r>   -5.5961    1.0000 </r>
       <r>   -5.5806    1.0000 </r>
       <r>   -5.4740    1.0000 </r>
       <r>   -5.2899    1.0000 </r>
       <r>   -5.2547    1.0000 </r>
       <r>   -5.2279    1.0000 </r>
       <r>   -5.1692    1.0000 </r>
       <r>   -5.1388    1.0000 </r>
       <r>   -5.0656    1.0000 </r>
       <r>   -4.9412    1.0000 </r>
       <r>   -4.8768    1.0000 </r>
       <r>   -4.8272    1.0000 </r>
       <r>   -4.7071    1.0000 </r>
       <r>   -4.5019    1.0000 </r>
       <r>   -4.4398    1.0000 </r>
       <r>   -4.3859    1.0000 </r>
       <r>   -4.3191    1.0000 </r>
       <r>   -4.2427    1.0000 </r>
       <r>   -4.2213    1.0000 </r>
       <r>   -4.1192    1.0000 </r>
       <r>   -3.9844    1.0000 </r>
       <r>   -3.9571    1.0000 </r>
       <r>   -3.8276    1.0000 </r>
       <r>   -3.7701    1.0000 </r>
       <r>   -3.6939    1.0000 </r>
       <r>   -3.6004    1.0000 </r>
       <r>   -3.5232    1.0000 </r>
       <r>   -3.2663    1.0000 </r>
       <r>   -3.2362    1.0000 </r>
       <r>   -2.9890    1.0000 </r>
       <r>   -2.9733    1.0000 </r>
       <r>   -2.7672    1.0000 </r>
       <r>   -2.5727    1.0000 </r>
       <r>   -2.5252    1.0000 </r>
       <r>   -2.4391    1.0000 </r>
       <r>   -2.4089    1.0000 </r>
       <r>   -2.3557    1.0000 </r>
       <r>   -2.2009    1.0000 </r>
       <r>   -2.1164    1.0000 </r>
       <r>   -2.0714    1.0000 </r>
       <r>   -1.9680    1.0000 </r>
       <r>   -1.8561    1.0000 </r>
       <r>   -1.8213    1.0000 </r>
       <r>   -1.6976    1.0000 </r>
       <r>   -1.4719    1.0000 </r>
       <r>   -0.7016    0.0000 </r>
       <r>   -0.3909    0.0000 </r>
       <r>   -0.3703    0.0000 </r>
       <r>   -0.2108    0.0000 </r>
       <r>   -0.1057    0.0000 </r>
       <r>   -0.0201    0.0000 </r>
       <r>    0.0282    0.0000 </r>
       <r>    0.1339    0.0000 </r>
       <r>    0.2443    0.0000 </r>
       <r>    0.3776    0.0000 </r>
       <r>    0.5355    0.0000 </r>
       <r>    0.5763    0.0000 </r>
       <r>    0.8385    0.0000 </r>
       <r>    0.9546    0.0000 </r>
       <r>    1.0364    0.0000 </r>
       <r>    1.1058    0.0000 </r>
       <r>    1.1365    0.0000 </r>
       <r>    1.2100    0.0000 </r>
       <r>    1.3690    0.0000 </r>
       <r>    1.3898    0.0000 </r>
       <r>    1.5012    0.0000 </r>
       <r>    1.6884    0.0000 </r>
       <r>    1.8099    0.0000 </r>
      </set>
      <set comment="kpoint 7">
       <r>  -62.5356    1.0000 </r>
       <r>  -62.5183    1.0000 </r>
       <r>  -62.4784    1.0000 </r>
       <r>  -62.4445    1.0000 </r>
       <r>  -62.4261    1.0000 </r>
       <r>  -62.4098    1.0000 </r>
       <r>  -62.3664    1.0000 </r>
       <r>  -62.3314    1.0000 </r>
       <r>  -62.3147    1.0000 </r>
       <r>  -36.9157    1.0000 </r>
       <r>  -36.9022    1.0000 </r>
       <r>  -36.8893    1.0000 </r>
       <r>  -36.8024    1.0000 </r>
       <r>  -36.7904    1.0000 </r>
       <r>  -36.7549    1.0000 </r>
       <r>  -36.7076    1.0000 </r>
       <r>  -36.6858    1.0000 </r>
       <r>  -36.6506    1.0000 </r>
       <r>  -36.6318    1.0000 </r>
       <r>  -36.6003    1.0000 </r>
       <r>  -36.5804    1.0000 </r>
       <r>  -36.5678    1.0000 </r>
       <r>  -36.5356    1.0000 </r>
       <r>  -36.5302    1.0000 </r>
       <r>  -36.5037    1.0000 </r>
       <r>  -36.4953    1.0000 </r>
       <r>  -36.4690    1.0000 </r>
       <r>  -36.4634    1.0000 </r>
       <r>  -36.4304    1.0000 </r>
       <r>  -36.4235    1.0000 </r>
       <r>  -36.4096    1.0000 </r>
       <r>  -36.3966    1.0000 </r>
       <r>  -36.3803    1.0000 </r>
       <r>  -36.3550    1.0000 </r>
       <r>  -36.3444    1.0000 </r>
       <r>  -36.3329    1.0000 </r>
       <r>  -15.4069    1.0000 </r>
       <r>  -15.1795    1.0000 </r>
       <r>  -14.8989    1.0000 </r>
       <r>  -14.4682    1.0000 </r>
       <r>  -14.4371    1.0000 </r>
       <r>  -14.3527    1.0000 </r>
       <r>  -14.1789    1.0000 </r>
       <r>  -14.1021    1.0000 </r>
       <r>  -14.0526    1.0000 </r>
       <r>  -13.9816    1.0000 </r>
       <r>  -13.9461    1.0000 </r>
       <r>  -13.8290    1.0000 </r>
       <r>  -13.8034    1.0000 </r>
       <r>  -13.6845    1.0000 </r>
       <r>  -13.6181    1.0000 </r>
       <r>  -13.3258    1.0000 </r>
       <r>  -13.2961    1.0000 </r>
       <r>  -13.2456    1.0000 </r>
       <r>   -7.6339    1.0000 </r>
       <r>   -7.4352    1.0000 </r>
       <r>   -7.3499    1.0000 </r>
       <r>   -6.9310    1.0000 </r>
       <r>   -6.8770    1.0000 </r>
       <r>   -6.6918    1.0000 </r>
       <r>   -6.6149    1.0000 </r>
       <r>   -6.5419    1.0000 </r>
       <r>   -6.4898    1.0000 </r>
       <r>   -6.4055    1.0000 </r>
       <r>   -6.3347    1.0000 </r>
       <r>   -6.2470    1.0000 </r>
       <r>   -6.1870    1.0000 </r>
       <r>   -6.1252    1.0000 </r>
       <r>   -6.0216    1.0000 </r>
       <r>   -5.8113    1.0000 </r>
       <r>   -5.7125    1.0000 </r>
       <r>   -5.6621    1.0000 </r>
       <r>   -5.5631    1.0000 </r>
       <r>   -5.4469    1.0000 </r>
       <r>   -5.3900    1.0000 </r>
       <r>   -5.3399    1.0000 </r>
       <r>   -5.2542    1.0000 </r>
       <r>   -5.1981    1.0000 </r>
       <r>   -5.0857    1.0000 </r>
       <r>   -5.0649    1.0000 </r>
       <r>   -5.0258    1.0000 </r>
       <r>   -4.9254    1.0000 </r>
       <r>   -4.8884    1.0000 </r>
       <r>   -4.8341    1.0000 </r>
       <r>   -4.6602    1.0000 </r>
       <r>   -4.5567    1.0000 </r>
       <r>   -4.5382    1.0000 </r>
       <r>   -4.4021    1.0000 </r>
       <r>   -4.3231    1.0000 </r>
       <r>   -4.2735    1.0000 </r>
       <r>   -4.1858    1.0000 </r>
       <r>   -4.1208    1.0000 </r>
       <r>   -4.0740    1.0000 </r>
       <r>   -3.9442    1.0000 </r>
       <r>   -3.8719    1.0000 </r>
       <r>   -3.7712    1.0000 </r>
       <r>   -3.7314    1.0000 </r>
       <r>   -3.5718    1.0000 </r>
       <r>   -3.5492    1.0000 </r>
       <r>   -3.3137    1.0000 </r>
       <r>   -3.2302    1.0000 </r>
       <r>   -2.9955    1.0000 </r>
       <r>   -2.9333    1.0000 </r>
       <r>   -2.8567    1.0000 </r>
       <r>   -2.7531    1.0000 </r>
       <r>   -2.4399    1.0000 </r>
       <r>   -2.4050    1.0000 </r>
       <r>   -2.3475    1.0000 </r>
       <r>   -2.2599    1.0000 </r>
       <r>   -2.2032    1.0000 </r>
       <r>   -2.1335    1.0000 </r>
       <r>   -2.0566    1.0000 </r>
       <r>   -1.9529    1.0000 </r>
       <r>   -1.9102    1.0000 </r>
       <r>   -1.8042    1.0000 </r>
       <r>   -1.6740    1.0000 </r>
       <r>   -1.5475    1.0000 </r>
       <r>   -0.6170    0.0000 </r>
       <r>   -0.5376    0.0000 </r>
       <r>   -0.3825    0.0000 </r>
       <r>   -0.1709    0.0000 </r>
       <r>   -0.0915    0.0000 </r>
       <r>    0.0014    0.0000 </r>
       <r>    0.0735    0.0000 </r>
       <r>    0.1613    0.0000 </r>
       <r>    0.2648    0.0000 </r>
       <r>    0.4769    0.0000 </r>
       <r>    0.5340    0.0000 </r>
       <r>    0.6022    0.0000 </r>
       <r>    0.9324    0.0000 </r>
       <r>    1.0159    0.0000 </r>
       <r>    1.0380    0.0000 </r>
       <r>    1.1273    0.0000 </r>
       <r>    1.1740    0.0000 </r>
       <r>    1.1966    0.0000 </r>
       <r>    1.2431    0.0000 </r>
       <r>    1.3261    0.0000 </r>
       <r>    1.4050    0.0000 </r>
       <r>    1.5744    0.0000 </r>
       <r>    1.6619    0.0000 </r>
      </set>
      <set comment="kpoint 8">
       <r>  -62.5355    1.0000 </r>
       <r>  -62.5184    1.0000 </r>
       <r>  -62.4784    1.0000 </r>
       <r>  -62.4447    1.0000 </r>
       <r>  -62.4256    1.0000 </r>
       <r>  -62.4101    1.0000 </r>
       <r>  -62.3663    1.0000 </r>
       <r>  -62.3315    1.0000 </r>
       <r>  -62.3147    1.0000 </r>
       <r>  -36.9151    1.0000 </r>
       <r>  -36.9026    1.0000 </r>
       <r>  -36.8881    1.0000 </r>
       <r>  -36.8020    1.0000 </r>
       <r>  -36.7912    1.0000 </r>
       <r>  -36.7499    1.0000 </r>
       <r>  -36.7195    1.0000 </r>
       <r>  -36.6845    1.0000 </r>
       <r>  -36.6530    1.0000 </r>
       <r>  -36.6292    1.0000 </r>
       <r>  -36.5939    1.0000 </r>
       <r>  -36.5886    1.0000 </r>
       <r>  -36.5652    1.0000 </r>
       <r>  -36.5343    1.0000 </r>
       <r>  -36.5277    1.0000 </r>
       <r>  -36.5017    1.0000 </r>
       <r>  -36.4990    1.0000 </r>
       <r>  -36.4663    1.0000 </r>
       <r>  -36.4596    1.0000 </r>
       <r>  -36.4341    1.0000 </r>
       <r>  -36.4191    1.0000 </r>
       <r>  -36.4091    1.0000 </r>
       <r>  -36.3975    1.0000 </r>
       <r>  -36.3844    1.0000 </r>
       <r>  -36.3567    1.0000 </r>
       <r>  -36.3465    1.0000 </r>
       <r>  -36.3304    1.0000 </r>
       <r>  -15.4175    1.0000 </r>
       <r>  -15.1561    1.0000 </r>
       <r>  -14.9167    1.0000 </r>
       <r>  -14.4667    1.0000 </r>
       <r>  -14.4242    1.0000 </r>
       <r>  -14.3578    1.0000 </r>
       <r>  -14.1652    1.0000 </r>
       <r>  -14.1237    1.0000 </r>
       <r>  -14.0598    1.0000 </r>
       <r>  -13.9890    1.0000 </r>
       <r>  -13.9204    1.0000 </r>
       <r>  -13.8385    1.0000 </r>
       <r>  -13.7863    1.0000 </r>
       <r>  -13.7118    1.0000 </r>
       <r>  -13.6009    1.0000 </r>
       <r>  -13.3352    1.0000 </r>
       <r>  -13.2928    1.0000 </r>
       <r>  -13.2451    1.0000 </r>
       <r>   -7.6324    1.0000 </r>
       <r>   -7.4532    1.0000 </r>
       <r>   -7.3174    1.0000 </r>
       <r>   -6.9702    1.0000 </r>
       <r>   -6.8223    1.0000 </r>
       <r>   -6.7310    1.0000 </r>
       <r>   -6.6583    1.0000 </r>
       <r>   -6.5052    1.0000 </r>
       <r>   -6.4265    1.0000 </r>
       <r>   -6.4035    1.0000 </r>
       <r>   -6.3457    1.0000 </r>
       <r>   -6.2543    1.0000 </r>
       <r>   -6.2302    1.0000 </r>
       <r>   -6.1122    1.0000 </r>
       <r>   -6.0228    1.0000 </r>
       <r>   -5.8387    1.0000 </r>
       <r>   -5.7486    1.0000 </r>
       <r>   -5.6342    1.0000 </r>
       <r>   -5.5027    1.0000 </r>
       <r>   -5.4527    1.0000 </r>
       <r>   -5.3989    1.0000 </r>
       <r>   -5.3367    1.0000 </r>
       <r>   -5.2339    1.0000 </r>
       <r>   -5.1897    1.0000 </r>
       <r>   -5.1396    1.0000 </r>
       <r>   -5.0858    1.0000 </r>
       <r>   -4.9824    1.0000 </r>
       <r>   -4.9374    1.0000 </r>
       <r>   -4.8950    1.0000 </r>
       <r>   -4.7968    1.0000 </r>
       <r>   -4.6906    1.0000 </r>
       <r>   -4.5399    1.0000 </r>
       <r>   -4.4827    1.0000 </r>
       <r>   -4.3856    1.0000 </r>
       <r>   -4.3412    1.0000 </r>
       <r>   -4.3314    1.0000 </r>
       <r>   -4.2596    1.0000 </r>
       <r>   -4.1370    1.0000 </r>
       <r>   -4.0378    1.0000 </r>
       <r>   -3.9221    1.0000 </r>
       <r>   -3.8200    1.0000 </r>
       <r>   -3.7941    1.0000 </r>
       <r>   -3.7328    1.0000 </r>
       <r>   -3.6271    1.0000 </r>
       <r>   -3.5042    1.0000 </r>
       <r>   -3.3191    1.0000 </r>
       <r>   -3.2163    1.0000 </r>
       <r>   -3.0089    1.0000 </r>
       <r>   -2.9368    1.0000 </r>
       <r>   -2.8277    1.0000 </r>
       <r>   -2.7410    1.0000 </r>
       <r>   -2.4943    1.0000 </r>
       <r>   -2.4077    1.0000 </r>
       <r>   -2.3324    1.0000 </r>
       <r>   -2.2851    1.0000 </r>
       <r>   -2.1960    1.0000 </r>
       <r>   -2.1352    1.0000 </r>
       <r>   -2.0611    1.0000 </r>
       <r>   -1.9943    1.0000 </r>
       <r>   -1.8498    1.0000 </r>
       <r>   -1.7856    1.0000 </r>
       <r>   -1.6801    1.0000 </r>
       <r>   -1.5506    1.0000 </r>
       <r>   -0.6550    0.0000 </r>
       <r>   -0.4913    0.0000 </r>
       <r>   -0.3560    0.0000 </r>
       <r>   -0.2116    0.0000 </r>
       <r>   -0.0914    0.0000 </r>
       <r>   -0.0387    0.0000 </r>
       <r>    0.0990    0.0000 </r>
       <r>    0.1535    0.0000 </r>
       <r>    0.2715    0.0000 </r>
       <r>    0.4890    0.0000 </r>
       <r>    0.5447    0.0000 </r>
       <r>    0.6166    0.0000 </r>
       <r>    0.9378    0.0000 </r>
       <r>    1.0232    0.0000 </r>
       <r>    1.0671    0.0000 </r>
       <r>    1.1017    0.0000 </r>
       <r>    1.1454    0.0000 </r>
       <r>    1.2028    0.0000 </r>
       <r>    1.2616    0.0000 </r>
       <r>    1.3111    0.0000 </r>
       <r>    1.3690    0.0000 </r>
       <r>    1.5864    0.0000 </r>
       <r>    1.6713    0.0000 </r>
      </set>
      <set comment="kpoint 9">
       <r>  -62.5356    1.0000 </r>
       <r>  -62.5184    1.0000 </r>
       <r>  -62.4780    1.0000 </r>
       <r>  -62.4451    1.0000 </r>
       <r>  -62.4248    1.0000 </r>
       <r>  -62.4107    1.0000 </r>
       <r>  -62.3662    1.0000 </r>
       <r>  -62.3317    1.0000 </r>
       <r>  -62.3146    1.0000 </r>
       <r>  -36.9138    1.0000 </r>
       <r>  -36.8873    1.0000 </r>
       <r>  -36.8735    1.0000 </r>
       <r>  -36.8083    1.0000 </r>
       <r>  -36.7871    1.0000 </r>
       <r>  -36.7581    1.0000 </r>
       <r>  -36.7425    1.0000 </r>
[...]
       <r>   -5.3128    1.0000 </r>
       <r>   -5.1972    1.0000 </r>
       <r>   -5.1375    1.0000 </r>
       <r>   -5.1055    1.0000 </r>
       <r>   -5.0281    1.0000 </r>
       <r>   -4.9671    1.0000 </r>
       <r>   -4.9100    1.0000 </r>
       <r>   -4.8571    1.0000 </r>
       <r>   -4.8021    1.0000 </r>
       <r>   -4.6265    1.0000 </r>
       <r>   -4.5554    1.0000 </r>
       <r>   -4.4871    1.0000 </r>
       <r>   -4.4409    1.0000 </r>
       <r>   -4.3925    1.0000 </r>
       <r>   -4.3223    1.0000 </r>
       <r>   -4.2379    1.0000 </r>
       <r>   -4.1861    1.0000 </r>
       <r>   -4.0392    1.0000 </r>
       <r>   -3.9732    1.0000 </r>
       <r>   -3.8584    1.0000 </r>
       <r>   -3.8330    1.0000 </r>
       <r>   -3.8020    1.0000 </r>
       <r>   -3.6962    1.0000 </r>
       <r>   -3.3811    1.0000 </r>
       <r>   -3.2608    1.0000 </r>
       <r>   -3.2163    1.0000 </r>
       <r>   -3.1714    1.0000 </r>
       <r>   -2.7660    1.0000 </r>
       <r>   -2.7298    1.0000 </r>
       <r>   -2.6152    1.0000 </r>
       <r>   -2.5922    1.0000 </r>
       <r>   -2.4545    1.0000 </r>
       <r>   -2.3383    1.0000 </r>
       <r>   -2.3144    1.0000 </r>
       <r>   -2.2449    1.0000 </r>
       <r>   -2.1195    1.0000 </r>
       <r>   -2.1091    1.0000 </r>
       <r>   -1.9752    1.0000 </r>
       <r>   -1.8393    1.0000 </r>
       <r>   -1.7795    1.0000 </r>
       <r>   -1.6644    1.0000 </r>
       <r>   -1.5397    1.0000 </r>
       <r>   -0.6240    0.0000 </r>
       <r>   -0.6004    0.0000 </r>
       <r>   -0.3630    0.0000 </r>
       <r>   -0.2406    0.0000 </r>
       <r>   -0.0585    0.0000 </r>
       <r>    0.0280    0.0000 </r>
       <r>    0.1068    0.0000 </r>
       <r>    0.1483    0.0000 </r>
       <r>    0.2353    0.0000 </r>
       <r>    0.5137    0.0000 </r>
       <r>    0.5961    0.0000 </r>
       <r>    0.6153    0.0000 </r>
       <r>    0.9382    0.0000 </r>
       <r>    0.9726    0.0000 </r>
       <r>    1.0505    0.0000 </r>
       <r>    1.1469    0.0000 </r>
       <r>    1.1651    0.0000 </r>
       <r>    1.1964    0.0000 </r>
       <r>    1.2356    0.0000 </r>
       <r>    1.2640    0.0000 </r>
       <r>    1.3255    0.0000 </r>
       <r>    1.5364    0.0000 </r>
       <r>    1.7478    0.0000 </r>
      </set>
     </set>
    </set>
   </array>
  </eigenvalues>
  <separator name="orbital magnetization" >
   <v name="MAGDIPOLOUT">      0.00000000      0.00000000      0.00000000</v>
  </separator>
  <dos>
   <i name="efermi">     -1.08714773 </i>
   <total>
    <array>
     <dimension dim="1">gridpoints</dimension>
     <dimension dim="2">spin</dimension>
     <field>energy</field>
     <field>total</field>
     <field>integrated</field>
     <set>
      <set comment="spin 1">
       <r>   -65.7636     0.0000     0.0000 </r>
       <r>   -65.5269     0.0000     0.0000 </r>
       <r>   -65.2902     0.0000     0.0000 </r>
       <r>   -65.0535     0.0000     0.0000 </r>
       <r>   -64.8168     0.0000     0.0000 </r>
       <r>   -64.5801     0.0000     0.0000 </r>
       <r>   -64.3434     0.0000     0.0000 </r>
       <r>   -64.1067     0.0000     0.0000 </r>
       <r>   -63.8700     0.0000     0.0000 </r>
       <r>   -63.6333     0.0000     0.0000 </r>
       <r>   -63.3967     0.0000     0.0000 </r>
       <r>   -63.1600     0.0000     0.0000 </r>
       <r>   -62.9233     0.0000     0.0000 </r>
       <r>   -62.6866     0.0001     0.0000 </r>
       <r>   -62.4499    30.2824     7.1677 </r>
       <r>   -62.2132    45.7445    17.9951 </r>
       <r>   -61.9765     0.0209    18.0000 </r>
       <r>   -61.7398     0.0000    18.0000 </r>
       <r>   -61.5031     0.0000    18.0000 </r>
       <r>   -61.2664     0.0000    18.0000 </r>
       <r>   -61.0297     0.0000    18.0000 </r>
       <r>   -60.7930     0.0000    18.0000 </r>
       <r>   -60.5563     0.0000    18.0000 </r>
       <r>   -60.3196     0.0000    18.0000 </r>
       <r>   -60.0829     0.0000    18.0000 </r>
       <r>   -59.8463     0.0000    18.0000 </r>
       <r>   -59.6096     0.0000    18.0000 </r>
       <r>   -59.3729     0.0000    18.0000 </r>
       <r>   -59.1362     0.0000    18.0000 </r>
       <r>   -58.8995     0.0000    18.0000 </r>
       <r>   -58.6628     0.0000    18.0000 </r>
       <r>   -58.4261     0.0000    18.0000 </r>
       <r>   -58.1894     0.0000    18.0000 </r>
       <r>   -57.9527     0.0000    18.0000 </r>
       <r>   -57.7160     0.0000    18.0000 </r>
       <r>   -57.4793     0.0000    18.0000 </r>
       <r>   -57.2426     0.0000    18.0000 </r>
       <r>   -57.0059     0.0000    18.0000 </r>
       <r>   -56.7692     0.0000    18.0000 </r>
       <r>   -56.5325     0.0000    18.0000 </r>
       <r>   -56.2959     0.0000    18.0000 </r>
       <r>   -56.0592     0.0000    18.0000 </r>
       <r>   -55.8225     0.0000    18.0000 </r>
       <r>   -55.5858     0.0000    18.0000 </r>
       <r>   -55.3491     0.0000    18.0000 </r>
       <r>   -55.1124     0.0000    18.0000 </r>
       <r>   -54.8757     0.0000    18.0000 </r>
       <r>   -54.6390     0.0000    18.0000 </r>
       <r>   -54.4023     0.0000    18.0000 </r>
       <r>   -54.1656     0.0000    18.0000 </r>
       <r>   -53.9289     0.0000    18.0000 </r>
       <r>   -53.6922     0.0000    18.0000 </r>
       <r>   -53.4555     0.0000    18.0000 </r>
       <r>   -53.2188     0.0000    18.0000 </r>
       <r>   -52.9821     0.0000    18.0000 </r>
       <r>   -52.7455     0.0000    18.0000 </r>
       <r>   -52.5088     0.0000    18.0000 </r>
       <r>   -52.2721     0.0000    18.0000 </r>
       <r>   -52.0354     0.0000    18.0000 </r>
       <r>   -51.7987     0.0000    18.0000 </r>
       <r>   -51.5620     0.0000    18.0000 </r>
       <r>   -51.3253     0.0000    18.0000 </r>
       <r>   -51.0886     0.0000    18.0000 </r>
       <r>   -50.8519     0.0000    18.0000 </r>
       <r>   -50.6152     0.0000    18.0000 </r>
       <r>   -50.3785     0.0000    18.0000 </r>
       <r>   -50.1418     0.0000    18.0000 </r>
       <r>   -49.9051     0.0000    18.0000 </r>
       <r>   -49.6684     0.0000    18.0000 </r>
       <r>   -49.4317     0.0000    18.0000 </r>
       <r>   -49.1951     0.0000    18.0000 </r>
       <r>   -48.9584     0.0000    18.0000 </r>
       <r>   -48.7217     0.0000    18.0000 </r>
       <r>   -48.4850     0.0000    18.0000 </r>
       <r>   -48.2483     0.0000    18.0000 </r>
       <r>   -48.0116     0.0000    18.0000 </r>
       <r>   -47.7749     0.0000    18.0000 </r>
       <r>   -47.5382     0.0000    18.0000 </r>
       <r>   -47.3015     0.0000    18.0000 </r>
       <r>   -47.0648     0.0000    18.0000 </r>
       <r>   -46.8281     0.0000    18.0000 </r>
       <r>   -46.5914     0.0000    18.0000 </r>
       <r>   -46.3547     0.0000    18.0000 </r>
       <r>   -46.1180     0.0000    18.0000 </r>
       <r>   -45.8813     0.0000    18.0000 </r>
       <r>   -45.6447     0.0000    18.0000 </r>
       <r>   -45.4080     0.0000    18.0000 </r>
       <r>   -45.1713     0.0000    18.0000 </r>
       <r>   -44.9346     0.0000    18.0000 </r>
       <r>   -44.6979     0.0000    18.0000 </r>
       <r>   -44.4612     0.0000    18.0000 </r>
       <r>   -44.2245     0.0000    18.0000 </r>
       <r>   -43.9878     0.0000    18.0000 </r>
       <r>   -43.7511     0.0000    18.0000 </r>
       <r>   -43.5144     0.0000    18.0000 </r>
       <r>   -43.2777     0.0000    18.0000 </r>
       <r>   -43.0410     0.0000    18.0000 </r>
       <r>   -42.8043     0.0000    18.0000 </r>
       <r>   -42.5676     0.0000    18.0000 </r>
       <r>   -42.3309     0.0000    18.0000 </r>
       <r>   -42.0943     0.0000    18.0000 </r>
       <r>   -41.8576     0.0000    18.0000 </r>
       <r>   -41.6209     0.0000    18.0000 </r>
       <r>   -41.3842     0.0000    18.0000 </r>
       <r>   -41.1475     0.0000    18.0000 </r>
       <r>   -40.9108     0.0000    18.0000 </r>
       <r>   -40.6741     0.0000    18.0000 </r>
       <r>   -40.4374     0.0000    18.0000 </r>
       <r>   -40.2007     0.0000    18.0000 </r>
       <r>   -39.9640     0.0000    18.0000 </r>
       <r>   -39.7273     0.0000    18.0000 </r>
       <r>   -39.4906     0.0000    18.0000 </r>
       <r>   -39.2539     0.0000    18.0000 </r>
       <r>   -39.0172     0.0000    18.0000 </r>
       <r>   -38.7806     0.0000    18.0000 </r>
       <r>   -38.5439     0.0000    18.0000 </r>
       <r>   -38.3072     0.0000    18.0000 </r>
       <r>   -38.0705     0.0000    18.0000 </r>
       <r>   -37.8338     0.0000    18.0000 </r>
       <r>   -37.5971     0.0000    18.0000 </r>
       <r>   -37.3604     0.0000    18.0000 </r>
       <r>   -37.1237     0.0000    18.0000 </r>
       <r>   -36.8870    14.6661    21.4714 </r>
       <r>   -36.6503    60.3054    35.7453 </r>
       <r>   -36.4136   104.3834    60.4521 </r>
       <r>   -36.1769    48.7883    72.0000 </r>
       <r>   -35.9402     0.0001    72.0000 </r>
       <r>   -35.7035     0.0000    72.0000 </r>
       <r>   -35.4668     0.0000    72.0000 </r>
       <r>   -35.2302     0.0000    72.0000 </r>
       <r>   -34.9935     0.0000    72.0000 </r>
       <r>   -34.7568     0.0000    72.0000 </r>
       <r>   -34.5201     0.0000    72.0000 </r>
       <r>   -34.2834     0.0000    72.0000 </r>
       <r>   -34.0467     0.0000    72.0000 </r>
       <r>   -33.8100     0.0000    72.0000 </r>
       <r>   -33.5733     0.0000    72.0000 </r>
       <r>   -33.3366     0.0000    72.0000 </r>
       <r>   -33.0999     0.0000    72.0000 </r>
       <r>   -32.8632     0.0000    72.0000 </r>
       <r>   -32.6265     0.0000    72.0000 </r>
       <r>   -32.3898     0.0000    72.0000 </r>
       <r>   -32.1531     0.0000    72.0000 </r>
       <r>   -31.9164     0.0000    72.0000 </r>
       <r>   -31.6798     0.0000    72.0000 </r>
       <r>   -31.4431     0.0000    72.0000 </r>
       <r>   -31.2064     0.0000    72.0000 </r>
       <r>   -30.9697     0.0000    72.0000 </r>
       <r>   -30.7330     0.0000    72.0000 </r>
       <r>   -30.4963     0.0000    72.0000 </r>
       <r>   -30.2596     0.0000    72.0000 </r>
       <r>   -30.0229     0.0000    72.0000 </r>
       <r>   -29.7862     0.0000    72.0000 </r>
       <r>   -29.5495     0.0000    72.0000 </r>
       <r>   -29.3128     0.0000    72.0000 </r>
       <r>   -29.0761     0.0000    72.0000 </r>
       <r>   -28.8394     0.0000    72.0000 </r>
       <r>   -28.6027     0.0000    72.0000 </r>
       <r>   -28.3660     0.0000    72.0000 </r>
       <r>   -28.1294     0.0000    72.0000 </r>
       <r>   -27.8927     0.0000    72.0000 </r>
       <r>   -27.6560     0.0000    72.0000 </r>
       <r>   -27.4193     0.0000    72.0000 </r>
       <r>   -27.1826     0.0000    72.0000 </r>
       <r>   -26.9459     0.0000    72.0000 </r>
       <r>   -26.7092     0.0000    72.0000 </r>
       <r>   -26.4725     0.0000    72.0000 </r>
       <r>   -26.2358     0.0000    72.0000 </r>
       <r>   -25.9991     0.0000    72.0000 </r>
       <r>   -25.7624     0.0000    72.0000 </r>
       <r>   -25.5257     0.0000    72.0000 </r>
       <r>   -25.2890     0.0000    72.0000 </r>
       <r>   -25.0523     0.0000    72.0000 </r>
       <r>   -24.8156     0.0000    72.0000 </r>
       <r>   -24.5790     0.0000    72.0000 </r>
       <r>   -24.3423     0.0000    72.0000 </r>
       <r>   -24.1056     0.0000    72.0000 </r>
       <r>   -23.8689     0.0000    72.0000 </r>
       <r>   -23.6322     0.0000    72.0000 </r>
       <r>   -23.3955     0.0000    72.0000 </r>
       <r>   -23.1588     0.0000    72.0000 </r>
       <r>   -22.9221     0.0000    72.0000 </r>
       <r>   -22.6854     0.0000    72.0000 </r>
       <r>   -22.4487     0.0000    72.0000 </r>
       <r>   -22.2120     0.0000    72.0000 </r>
       <r>   -21.9753     0.0000    72.0000 </r>
       <r>   -21.7386     0.0000    72.0000 </r>
       <r>   -21.5019     0.0000    72.0000 </r>
       <r>   -21.2652     0.0000    72.0000 </r>
       <r>   -21.0286     0.0000    72.0000 </r>
       <r>   -20.7919     0.0000    72.0000 </r>
       <r>   -20.5552     0.0000    72.0000 </r>
       <r>   -20.3185     0.0000    72.0000 </r>
       <r>   -20.0818     0.0000    72.0000 </r>
       <r>   -19.8451     0.0000    72.0000 </r>
       <r>   -19.6084     0.0000    72.0000 </r>
       <r>   -19.3717     0.0000    72.0000 </r>
       <r>   -19.1350     0.0000    72.0000 </r>
       <r>   -18.8983     0.0000    72.0000 </r>
       <r>   -18.6616     0.0000    72.0000 </r>
       <r>   -18.4249     0.0000    72.0000 </r>
       <r>   -18.1882     0.0000    72.0000 </r>
       <r>   -17.9515     0.0000    72.0000 </r>
       <r>   -17.7148     0.0000    72.0000 </r>
       <r>   -17.4782     0.0000    72.0000 </r>
       <r>   -17.2415     0.0000    72.0000 </r>
       <r>   -17.0048     0.0000    72.0000 </r>
       <r>   -16.7681     0.0000    72.0000 </r>
       <r>   -16.5314     0.0000    72.0000 </r>
       <r>   -16.2947     0.0000    72.0000 </r>
       <r>   -16.0580     0.0000    72.0000 </r>
       <r>   -15.8213     0.0009    72.0002 </r>
       <r>   -15.5846     2.5868    72.6125 </r>
       <r>   -15.3479     5.1378    73.8286 </r>
       <r>   -15.1112     4.4586    74.8839 </r>
       <r>   -14.8745     5.8732    76.2740 </r>
       <r>   -14.6378     6.4125    77.7918 </r>
       <r>   -14.4011    15.6731    81.5015 </r>
       <r>   -14.1645    21.6441    86.6246 </r>
       <r>   -13.9278    25.5049    92.6614 </r>
       <r>   -13.6911    26.0965    98.8383 </r>
       <r>   -13.4544    16.2774   102.6910 </r>
       <r>   -13.2177    19.3875   107.2799 </r>
       <r>   -12.9810     3.0423   108.0000 </r>
       <r>   -12.7443     0.0000   108.0000 </r>
       <r>   -12.5076     0.0000   108.0000 </r>
       <r>   -12.2709     0.0000   108.0000 </r>
       <r>   -12.0342     0.0000   108.0000 </r>
       <r>   -11.7975     0.0000   108.0000 </r>
       <r>   -11.5608     0.0000   108.0000 </r>
       <r>   -11.3241     0.0000   108.0000 </r>
       <r>   -11.0874     0.0000   108.0000 </r>
       <r>   -10.8507     0.0000   108.0000 </r>
       <r>   -10.6141     0.0000   108.0000 </r>
       <r>   -10.3774     0.0000   108.0000 </r>
       <r>   -10.1407     0.0000   108.0000 </r>
       <r>    -9.9040     0.0000   108.0000 </r>
       <r>    -9.6673     0.0000   108.0000 </r>
       <r>    -9.4306     0.0000   108.0000 </r>
       <r>    -9.1939     0.0000   108.0000 </r>
       <r>    -8.9572     0.0000   108.0000 </r>
       <r>    -8.7205     0.0000   108.0000 </r>
       <r>    -8.4838     0.0000   108.0000 </r>
       <r>    -8.2471     0.0000   108.0000 </r>
       <r>    -8.0104     0.0000   108.0000 </r>
       <r>    -7.7737     0.0141   108.0033 </r>
       <r>    -7.5370     5.4767   109.2996 </r>
       <r>    -7.3003     8.9906   111.4276 </r>
       <r>    -7.0637    10.0096   113.7968 </r>
       <r>    -6.8270    17.5351   117.9473 </r>
       <r>    -6.5903    18.1675   122.2474 </r>
       <r>    -6.3536    27.7238   128.8094 </r>
       <r>    -6.1169    26.4518   135.0704 </r>
       <r>    -5.8802    17.1224   139.1232 </r>
       <r>    -5.6435    20.5832   143.9951 </r>
       <r>    -5.4068    20.9735   148.9593 </r>
       <r>    -5.1701    30.8033   156.2503 </r>
       <r>    -4.9334    28.0772   162.8960 </r>
       <r>    -4.6967    22.9412   168.3260 </r>
       <r>    -4.4600    22.1962   173.5797 </r>
       <r>    -4.2233    30.2582   180.7416 </r>
       <r>    -3.9866    22.6128   186.0939 </r>
       <r>    -3.7499    24.4626   191.8840 </r>
       <r>    -3.5133    18.2633   196.2068 </r>
       <r>    -3.2766    13.7157   199.4532 </r>
       <r>    -3.0399    13.1114   202.5566 </r>
       <r>    -2.8032    19.3390   207.1340 </r>
       <r>    -2.5665    15.7187   210.8545 </r>
       <r>    -2.3298    21.5143   215.9468 </r>
       <r>    -2.0931    25.7770   222.0481 </r>
       <r>    -1.8564    20.4962   226.8994 </r>
       <r>    -1.6197    21.0658   231.8855 </r>
       <r>    -1.3830     8.4620   233.8884 </r>
       <r>    -1.1463     0.4715   234.0000 </r>
       <r>    -0.9096     0.0000   234.0000 </r>
       <r>    -0.6729     4.3602   235.0320 </r>
       <r>    -0.4362     9.9036   237.3762 </r>
       <r>    -0.1995    16.9333   241.3842 </r>
       <r>     0.0371    22.1530   246.6276 </r>
       <r>     0.2738    21.5424   251.7266 </r>
       <r>     0.5105     9.5498   253.9869 </r>
       <r>     0.7472    17.1147   258.0379 </r>
       <r>     0.9839    13.4180   261.2138 </r>
       <r>     1.2206    35.4363   269.6014 </r>
       <r>     1.4573    22.2086   274.8580 </r>
       <r>     1.6940    12.0496   277.7101 </r>
       <r>     1.9307     7.8871   279.5769 </r>
       <r>     2.1674     1.7876   280.0000 </r>
       <r>     2.4041     0.0000   280.0000 </r>
       <r>     2.6408     0.0000   280.0000 </r>
       <r>     2.8775     0.0000   280.0000 </r>
       <r>     3.1142     0.0000   280.0000 </r>
       <r>     3.3509     0.0000   280.0000 </r>
       <r>     3.5875     0.0000   280.0000 </r>
       <r>     3.8242     0.0000   280.0000 </r>
       <r>     4.0609     0.0000   280.0000 </r>
       <r>     4.2976     0.0000   280.0000 </r>
       <r>     4.5343     0.0000   280.0000 </r>
       <r>     4.7710     0.0000   280.0000 </r>
       <r>     5.0077     0.0000   280.0000 </r>
       <r>     5.2444     0.0000   280.0000 </r>
      </set>
     </set>
    </array>
   </total>
  </dos>
 </calculation>
 <structure name="finalpos" >
  <crystal>
   <varray name="basis" >
    <v>       9.56424100       0.00000000       0.00000000 </v>
    <v>      -4.78212000       8.28287600       0.00000000 </v>
    <v>      -0.00000000       0.00000000      18.15827300 </v>
   </varray>
   <i name="volume">   1438.48789588 </i>
   <varray name="rec_basis" >
    <v>       0.10455613       0.06036550       0.00000000 </v>
    <v>       0.00000000       0.12073101      -0.00000000 </v>
    <v>       0.00000000      -0.00000000       0.05507132 </v>
   </varray>
  </crystal>
  <varray name="positions" >
   <v>       0.03061442       0.01058128       0.49932784 </v>
   <v>       0.30540122       0.34633768       0.50096340 </v>
   <v>       0.65252153       0.01333618       0.49798269 </v>
   <v>       0.32887868       0.97146900       0.49984040 </v>
   <v>       0.36479140       0.68335009       0.50210497 </v>
   <v>       0.70801184       0.34922901       0.49440647 </v>
   <v>       0.98178195       0.29639323       0.49548109 </v>
   <v>       0.64536267       0.63485308       0.50209939 </v>
   <v>       0.97714385       0.67867000       0.49956488 </v>
   <v>       0.56153966       0.12926475       0.58489486 </v>
   <v>       0.23026744       0.10832415       0.58979743 </v>
   <v>       0.12107185       0.22853476       0.40432752 </v>
   <v>       0.20452711       0.45589187       0.58297738 </v>
   <v>       0.11615640       0.56512637       0.43342774 </v>
   <v>       0.21741370       0.77672885       0.58721071 </v>
   <v>       0.12310539       0.88174870       0.40968696 </v>
   <v>       0.45136487       0.23025761       0.43594832 </v>
   <v>       0.45392333       0.88659254       0.40864337 </v>
   <v>       0.54118478       0.42193645       0.58758446 </v>
   <v>       0.55884955       0.79227649       0.58943167 </v>
   <v>       0.44251448       0.56165697       0.41122924 </v>
   <v>       0.87776432       0.10485622       0.58412814 </v>
   <v>       0.78032100       0.21290096       0.40670673 </v>
   <v>       0.90823636       0.45485721       0.58262196 </v>
   <v>       0.76504917       0.55139167       0.41031696 </v>
   <v>       0.88934378       0.79914074       0.58442118 </v>
   <v>       0.77379999       0.88572806       0.43126581 </v>
  </varray>
 </structure>
</modeling>
