<?xml version="1.0" encoding="ISO-8859-1"?>
<modeling>
 <generator>
  <i name="program" type="string">vasp </i>
  <i name="version" type="string">6.2.0  </i>
  <i name="subversion" type="string">18Jan21 (build Mar 25 2021 14:28:09) complex                          parallel </i>
  <i name="platform" type="string">LinuxGNU </i>
  <i name="date" type="string">2021 12 20 </i>
  <i name="time" type="string">09:50:47 </i>
 </generator>
 <incar>
  <i type="string" name="SYSTEM">benzene</i>
  <i type="int" name="ISTART">     0</i>
  <i type="string" name="PREC">Accurate</i>
  <i type="string" name="ALGO">Normal</i>
  <i type="int" name="NELM">   200</i>
  <i type="int" name="IBRION">    -1</i>
  <i name="EDIFF">      0.00000100</i>
  <i type="int" name="NSW">     0</i>
  <i name="ENCUT">    600.00000000</i>
  <i type="logical" name="LREAL"> F  </i>
  <i type="int" name="ISMEAR">     0</i>
  <i name="SIGMA">      0.05000000</i>
  <i type="logical" name="LWAVE"> F  </i>
  <i type="logical" name="LCHARG"> T  </i>
  <i type="string" name="GGA">PE</i>
 </incar>
 <primitive_cell>
  <structure name="primitive_cell" >
   <crystal>
    <varray name="basis" >
     <v>      10.58354422       0.00000000       0.00000000 </v>
     <v>       0.00000000      10.58354422       0.00000000 </v>
     <v>       0.00000000       0.00000000      10.58354422 </v>
    </varray>
    <i name="volume">   1185.47769178 </i>
    <varray name="rec_basis" >
     <v>       0.09448631       0.00000000       0.00000000 </v>
     <v>       0.00000000       0.09448631       0.00000000 </v>
     <v>       0.00000000       0.00000000       0.09448631 </v>
    </varray>
   </crystal>
   <varray name="positions" >
    <v>       0.49656285       0.63285050       0.49793630 </v>
    <v>       0.38346610       0.56128770       0.49811715 </v>
    <v>       0.38416885       0.43381620       0.49524705 </v>
    <v>       0.49808505       0.37348595       0.49611670 </v>
    <v>       0.61455860       0.43862880       0.50302760 </v>
    <v>       0.61445325       0.57436270       0.50281910 </v>
    <v>       0.50675850       0.73392585       0.50228800 </v>
    <v>       0.29388930       0.61535455       0.50791765 </v>
    <v>       0.29574795       0.37500065       0.49250300 </v>
    <v>       0.50004760       0.26947810       0.51068925 </v>
    <v>       0.70092390       0.37997850       0.49772035 </v>
    <v>       0.71133805       0.61183050       0.49561790 </v>
   </varray>
  </structure>
  <varray name="primitive_index" >
   <v type="int" >        1 </v>
   <v type="int" >        2 </v>
   <v type="int" >        3 </v>
   <v type="int" >        4 </v>
   <v type="int" >        5 </v>
   <v type="int" >        6 </v>
   <v type="int" >        7 </v>
   <v type="int" >        8 </v>
   <v type="int" >        9 </v>
   <v type="int" >       10 </v>
   <v type="int" >       11 </v>
   <v type="int" >       12 </v>
  </varray>
 </primitive_cell>
 <kpoints>
  <generation param="Gamma">
   <v type="int" name="divisions">       1        1        1 </v>
   <v name="usershift">      0.00000000       0.00000000       0.00000000 </v>
   <v name="genvec1">      1.00000000       0.00000000       0.00000000 </v>
   <v name="genvec2">      0.00000000       1.00000000       0.00000000 </v>
   <v name="genvec3">      0.00000000       0.00000000       1.00000000 </v>
   <v name="shift">      0.00000000       0.00000000       0.00000000 </v>
  </generation>
  <varray name="kpointlist" >
   <v>       0.00000000       0.00000000       0.00000000 </v>
  </varray>
  <varray name="weights" >
   <v>       1.00000000 </v>
  </varray>
 </kpoints>
 <parameters>
  <separator name="general" >
   <i type="string" name="SYSTEM">benzene</i>
   <i type="logical" name="LCOMPAT"> F  </i>
  </separator>
  <separator name="electronic" >
   <i type="string" name="PREC">accura</i>
   <i name="ENMAX">    600.00000000</i>
   <i name="ENAUG">    644.87300000</i>
   <i name="EDIFF">      0.00000100</i>
   <i type="int" name="IALGO">    38</i>
   <i type="int" name="IWAVPR">    10</i>
   <i type="int" name="NBANDS">    24</i>
   <i type="int" name="NBANDSLOW">    -1</i>
   <i type="int" name="NBANDSHIGH">    -1</i>
   <i name="NELECT">     30.00000000</i>
   <i type="int" name="TURBO">     0</i>
   <i type="int" name="IRESTART">     0</i>
   <i type="int" name="NREBOOT">     0</i>
   <i type="int" name="NMIN">     0</i>
   <i name="EREF">      0.00000000</i>
   <separator name="electronic smearing" >
    <i type="int" name="ISMEAR">     0</i>
    <i name="SIGMA">      0.05000000</i>
    <i name="KSPACING">      0.50000000</i>
    <i type="logical" name="KGAMMA"> T  </i>
    <i type="logical" name="KBLOWUP"> T  </i>
   </separator>
   <separator name="electronic projectors" >
    <i type="logical" name="LREAL"> F  </i>
    <v name="ROPT">      0.00000000      0.00000000</v>
    <i type="int" name="LMAXPAW">  -100</i>
    <i type="int" name="LMAXMIX">     2</i>
    <i type="logical" name="NLSPLINE"> F  </i>
   </separator>
   <separator name="electronic startup" >
    <i type="int" name="ISTART">     0</i>
    <i type="int" name="ICHARG">     2</i>
    <i type="int" name="INIWAV">     1</i>
   </separator>
   <separator name="electronic spin" >
    <i type="int" name="ISPIN">     1</i>
    <i type="logical" name="LNONCOLLINEAR"> F  </i>
    <v name="MAGMOM">      1.00000000      1.00000000      1.00000000      1.00000000      1.00000000      1.00000000      1.00000000      1.00000000      1.00000000      1.00000000      1.00000000      1.00000000</v>
    <i name="NUPDOWN">     -1.00000000</i>
    <i type="logical" name="LSORBIT"> F  </i>
    <v name="SAXIS">      0.00000000      0.00000000      1.00000000</v>
    <i type="logical" name="LSPIRAL"> F  </i>
    <v name="QSPIRAL">      0.00000000      0.00000000      0.00000000</v>
    <i type="logical" name="LZEROZ"> F  </i>
   </separator>
   <separator name="electronic exchange-correlation" >
    <i type="logical" name="LASPH"> F  </i>
    <i type="logical" name="LMETAGGA"> F  </i>
   </separator>
   <separator name="electronic convergence" >
    <i type="int" name="NELM">   200</i>
    <i type="int" name="NELMDL">    -5</i>
    <i type="int" name="NELMIN">     2</i>
    <i name="ENINI">    600.00000000</i>
    <separator name="electronic convergence detail" >
     <i type="logical" name="LDIAG"> T  </i>
     <i type="logical" name="LSUBROT"> F  </i>
     <i name="WEIMIN">      0.00000000</i>
     <i name="EBREAK">      0.00000001</i>
     <i name="DEPER">      0.30000000</i>
     <i type="int" name="NRMM">     4</i>
     <i name="TIME">      0.40000000</i>
    </separator>
   </separator>
   <separator name="electronic mixer" >
    <i name="AMIX">      0.40000000</i>
    <i name="BMIX">      1.00000000</i>
    <i name="AMIN">      0.10000000</i>
    <i name="AMIX_MAG">      1.60000000</i>
    <i name="BMIX_MAG">      1.00000000</i>
    <separator name="electronic mixer details" >
     <i type="int" name="IMIX">     4</i>
     <i type="logical" name="MIXFIRST"> F  </i>
     <i type="int" name="MAXMIX">   -45</i>
     <i name="WC">    100.00000000</i>
     <i type="int" name="INIMIX">     1</i>
     <i type="int" name="MIXPRE">     1</i>
     <i type="int" name="MREMOVE">     5</i>
    </separator>
   </separator>
   <separator name="electronic dipolcorrection" >
    <i type="logical" name="LDIPOL"> F  </i>
    <i type="logical" name="LMONO"> F  </i>
    <i type="int" name="IDIPOL">     0</i>
    <i name="EPSILON">      1.00000000</i>
    <v name="DIPOL">   -100.00000000   -100.00000000   -100.00000000</v>
    <i name="EFIELD">      0.00000000</i>
   </separator>
  </separator>
  <separator name="grids" >
   <i type="int" name="NGX">    90</i>
   <i type="int" name="NGY">    90</i>
   <i type="int" name="NGZ">    90</i>
   <i type="int" name="NGXF">   180</i>
   <i type="int" name="NGYF">   180</i>
   <i type="int" name="NGZF">   180</i>
   <i type="logical" name="ADDGRID"> F  </i>
  </separator>
  <separator name="ionic" >
   <i type="int" name="NSW">     0</i>
   <i type="int" name="IBRION">    -1</i>
   <i type="int" name="MDALGO">     0</i>
   <i type="int" name="ISIF">     2</i>
   <i name="PSTRESS">      0.00000000</i>
   <i name="EDIFFG">      0.00001000</i>
   <i type="int" name="NFREE">     0</i>
   <i name="POTIM">      0.50000000</i>
   <i name="SMASS">     -3.00000000</i>
   <i name="SCALEE">      1.00000000</i>
  </separator>
  <separator name="ionic md" >
   <i name="TEBEG">      0.00010000</i>
   <i name="TEEND">      0.00010000</i>
   <i type="int" name="NBLOCK">     1</i>
   <i type="int" name="KBLOCK">     1</i>
   <i type="int" name="NPACO">   256</i>
   <i name="APACO">     16.00000000</i>
  </separator>
  <separator name="symmetry" >
   <i type="int" name="ISYM">     2</i>
   <i name="SYMPREC">      0.00001000</i>
  </separator>
  <separator name="dos" >
   <i type="int" name="LORBIT">     0</i>
   <v name="RWIGS">     -1.00000000     -1.00000000</v>
   <i type="int" name="NEDOS">   301</i>
   <i name="EMIN">     10.00000000</i>
   <i name="EMAX">    -10.00000000</i>
   <i name="EFERMI">      0.00000000</i>
  </separator>
  <separator name="writing" >
   <i type="int" name="NWRITE">     2</i>
   <i type="logical" name="LWAVE"> F  </i>
   <i type="logical" name="LDOWNSAMPLE"> F  </i>
   <i type="logical" name="LCHARG"> T  </i>
   <i type="logical" name="LPARD"> F  </i>
   <i type="logical" name="LVTOT"> F  </i>
   <i type="logical" name="LVHAR"> F  </i>
   <i type="logical" name="LELF"> F  </i>
   <i type="logical" name="LOPTICS"> F  </i>
   <v name="STM">      0.00000000      0.00000000      0.00000000      0.00000000      0.00000000      0.00000000      0.00000000</v>
  </separator>
  <separator name="performance" >
   <i type="int" name="NPAR">     4</i>
   <i type="int" name="NSIM">     4</i>
   <i type="int" name="NBLK">    -1</i>
   <i type="logical" name="LPLANE"> T  </i>
   <i type="logical" name="LSCALAPACK"> T  </i>
   <i type="logical" name="LSCAAWARE"> F  </i>
   <i type="logical" name="LSCALU"> F  </i>
   <i type="logical" name="LASYNC"> F  </i>
   <i type="logical" name="LORBITALREAL"> F  </i>
  </separator>
  <separator name="miscellaneous" >
   <i type="int" name="IDIOT">     3</i>
   <i type="int" name="PHON_NSTRUCT">    -1</i>
   <i type="logical" name="LMUSIC"> F  </i>
   <v name="POMASS">     12.01100000      1.00000000</v>
   <v name="DARWINR">      0.00000000      0.00000000</v>
   <v name="DARWINV">      1.00000000      1.00000000</v>
   <i type="logical" name="LCORR"> T  </i>
  </separator>
  <i type="logical" name="GGA_COMPAT"> T  </i>
  <i type="logical" name="LBERRY"> F  </i>
  <i type="int" name="ICORELEVEL">     0</i>
  <i type="logical" name="LDAU"> F  </i>
  <i type="int" name="I_CONSTRAINED_M">     0</i>
  <separator name="electronic exchange-correlation" >
   <i type="string" name="GGA">PE</i>
   <i type="int" name="VOSKOWN">     0</i>
   <i type="logical" name="LHFCALC"> F  </i>
   <i type="string" name="PRECFOCK"></i>
   <i type="logical" name="LSYMGRAD"> F  </i>
   <i type="logical" name="LHFONE"> F  </i>
   <i type="logical" name="LRHFCALC"> F  </i>
   <i type="logical" name="LTHOMAS"> F  </i>
   <i type="logical" name="LMODELHF"> F  </i>
   <i type="logical" name="LFOCKACE"> F  </i>
   <i name="ENCUT4O">     -1.00000000</i>
   <i type="int" name="EXXOEP">     0</i>
   <i type="int" name="FOURORBIT">     0</i>
   <i name="AEXX">      0.00000000</i>
   <i name="HFALPHA">      0.00000000</i>
   <i name="MCALPHA">      0.00000000</i>
   <i name="ALDAX">      1.00000000</i>
   <i name="AGGAX">      1.00000000</i>
   <i name="ALDAC">      1.00000000</i>
   <i name="AGGAC">      1.00000000</i>
   <i type="int" name="NKREDX">     1</i>
   <i type="int" name="NKREDY">     1</i>
   <i type="int" name="NKREDZ">     1</i>
   <i type="logical" name="SHIFTRED"> F  </i>
   <i type="logical" name="ODDONLY"> F  </i>
   <i type="logical" name="EVENONLY"> F  </i>
   <i type="int" name="LMAXFOCK">     0</i>
   <i type="int" name="NMAXFOCKAE">     0</i>
   <i type="logical" name="LFOCKAEDFT"> F  </i>
   <i name="HFSCREEN">      0.00000000</i>
   <i name="HFSCREENC">      0.00000000</i>
   <i type="int" name="NBANDSGWLOW">     0</i>
  </separator>
  <separator name="vdW DFT" >
   <i type="logical" name="LUSE_VDW"> F  </i>
   <i name="Zab_VDW">     -0.84910000</i>
   <i name="PARAM1">      0.12340000</i>
   <i name="PARAM2">      1.00000000</i>
   <i name="PARAM3">      0.00000000</i>
  </separator>
  <separator name="model GW" >
   <i type="int" name="MODEL_GW">     0</i>
   <i name="MODEL_EPS0">     59.27388459</i>
   <i name="MODEL_ALPHA">      1.00000000</i>
  </separator>
  <separator name="linear response parameters" >
   <i type="logical" name="LEPSILON"> F  </i>
   <i type="logical" name="LRPA"> F  </i>
   <i type="logical" name="LNABLA"> F  </i>
   <i type="logical" name="LVEL"> F  </i>
   <i type="int" name="KINTER">     0</i>
   <i name="CSHIFT">      0.10000000</i>
   <i name="OMEGAMAX">     -1.00000000</i>
   <i name="DEG_THRESHOLD">      0.00200000</i>
   <i name="RTIME">     -0.10000000</i>
   <i name="WPLASMAI">      0.00000000</i>
   <v name="DFIELD">      0.00000000      0.00000000      0.00000000</v>
   <v name="WPLASMA">      0.00000000      0.00000000      0.00000000      0.00000000      0.00000000      0.00000000      0.00000000      0.00000000      0.00000000</v>
  </separator>
  <separator name="orbital magnetization" >
   <i type="logical" name="NUCIND"> F  </i>
   <v name="MAGPOS">      0.00000000      0.00000000      0.00000000</v>
   <i type="logical" name="LNICSALL"> T  </i>
   <i type="logical" name="ORBITALMAG"> F  </i>
   <i type="logical" name="LMAGBLOCH"> F  </i>
   <i type="logical" name="LCHIMAG"> F  </i>
   <i type="logical" name="LGAUGE"> T  </i>
   <i type="int" name="MAGATOM">     0</i>
   <v name="MAGDIPOL">      0.00000000      0.00000000      0.00000000</v>
   <v name="AVECCONST">      0.00000000      0.00000000      0.00000000</v>
  </separator>
  <separator name="response functions" >
   <i type="logical" name="LFINITE_TEMPERATURE"> F  </i>
   <i type="logical" name="LADDER"> F  </i>
   <i type="logical" name="LRPAFORCE"> F  </i>
   <i type="logical" name="LFXC"> F  </i>
   <i type="logical" name="LHARTREE"> T  </i>
   <i type="int" name="IBSE">     0</i>
   <v type="int" name="KPOINT">    -1     0     0     0</v>
   <i type="logical" name="LTCTC"> F  </i>
   <i type="logical" name="LTCTE"> F  </i>
   <i type="logical" name="LTETE"> F  </i>
   <i type="logical" name="LTRIPLET"> F  </i>
   <i type="logical" name="LFXCEPS"> F  </i>
   <i type="logical" name="LFXHEG"> F  </i>
   <i type="int" name="NATURALO">     2</i>
   <i type="logical" name="LHOLEGF"> F  </i>
   <i type="logical" name="L2ORDER"> F  </i>
   <i type="logical" name="LDMP1"> F  </i>
   <i type="logical" name="LMP2LT"> F  </i>
   <i type="logical" name="LSMP2LT"> F  </i>
   <i type="logical" name="LGWLF"> F  </i>
   <i name="ENCUTGW">     -2.00000000</i>
   <i name="ENCUTGWSOFT">     -2.00000000</i>
   <i name="ENCUTLF">     -1.00000000</i>
   <i type="logical" name="LESF_SPLINES"> F  </i>
   <i type="int" name="LMAXMP2">    -1</i>
   <i name="SCISSOR">      0.00000000</i>
   <i type="int" name="NOMEGA">     0</i>
   <i type="int" name="NOMEGAR">     0</i>
   <i type="int" name="NBANDSGW">    -1</i>
   <i type="int" name="NBANDSO">    -1</i>
   <i type="int" name="NBANDSV">    -1</i>
   <i type="int" name="NELM">   200</i>
   <i type="int" name="NELMHF">     1</i>
   <i type="int" name="DIM">     3</i>
   <i type="int" name="IESPILON">     4</i>
   <i type="int" name="ANTIRES">     0</i>
   <i name="OMEGAMAX">    -30.00000000</i>
   <i name="OMEGAMIN">    -30.00000000</i>
   <i name="OMEGATL">   -200.00000000</i>
   <i type="int" name="OMEGAGRID">     0</i>
   <i name="CSHIFT">     -0.10000000</i>
   <i type="logical" name="LSELFENERGY"> F  </i>
   <i type="logical" name="LSPECTRAL"> F  </i>
   <i type="logical" name="LSPECTRALGW"> F  </i>
   <i type="logical" name="LSINGLES"> F  </i>
   <i type="logical" name="LFERMIGW"> F  </i>
   <i type="logical" name="ODDONLYGW"> F  </i>
   <i type="logical" name="EVENONLYGW"> F  </i>
   <i type="int" name="NKREDLFX">     1</i>
   <i type="int" name="NKREDLFY">     1</i>
   <i type="int" name="NKREDLFZ">     1</i>
   <i type="int" name="MAXMEM">  2800</i>
   <i type="int" name="TELESCOPE">     0</i>
   <i type="int" name="NTAUPAR">    -1</i>
   <i type="int" name="NOMEGAPAR">    -1</i>
   <i name="DAMP_NEWTON">      0.80000001</i>
   <i name="LAMBDA">      1.00000000</i>
  </separator>
  <separator name="External order field" >
   <i name="OFIELD_KAPPA">      0.00000000</i>
   <v name="OFIELD_K">      0.00000000      0.00000000      0.00000000</v>
   <i name="OFIELD_Q6_NEAR">      0.00000000</i>
   <i name="OFIELD_Q6_FAR">      0.00000000</i>
   <i name="OFIELD_A">      0.00000000</i>
  </separator>
 </parameters>
 <atominfo>
  <atoms>      12 </atoms>
  <types>       2 </types>
  <array name="atoms" >
   <dimension dim="1">ion</dimension>
   <field type="string">element</field>
   <field type="int">atomtype</field>
   <set>
    <rc><c>C </c><c>   1</c></rc>
    <rc><c>C </c><c>   1</c></rc>
    <rc><c>C </c><c>   1</c></rc>
    <rc><c>C </c><c>   1</c></rc>
    <rc><c>C </c><c>   1</c></rc>
    <rc><c>C </c><c>   1</c></rc>
    <rc><c>H </c><c>   2</c></rc>
    <rc><c>H </c><c>   2</c></rc>
    <rc><c>H </c><c>   2</c></rc>
    <rc><c>H </c><c>   2</c></rc>
    <rc><c>H </c><c>   2</c></rc>
    <rc><c>H </c><c>   2</c></rc>
   </set>
  </array>
  <array name="atomtypes" >
   <dimension dim="1">type</dimension>
   <field type="int">atomspertype</field>
   <field type="string">element</field>
   <field>mass</field>
   <field>valence</field>
   <field type="string">pseudopotential</field>
   <set>
    <rc><c>   6</c><c>C </c><c>     12.01100000</c><c>      4.00000000</c><c>  PAW_PBE C 08Apr2002                   </c></rc>
    <rc><c>   6</c><c>H </c><c>      1.00000000</c><c>      1.00000000</c><c>  PAW_PBE H 15Jun2001                   </c></rc>
   </set>
  </array>
 </atominfo>
 <structure name="initialpos" >
  <crystal>
   <varray name="basis" >
    <v>      10.58354422       0.00000000       0.00000000 </v>
    <v>       0.00000000      10.58354422       0.00000000 </v>
    <v>       0.00000000       0.00000000      10.58354422 </v>
   </varray>
   <i name="volume">   1185.47769178 </i>
   <varray name="rec_basis" >
    <v>       0.09448631       0.00000000       0.00000000 </v>
    <v>       0.00000000       0.09448631       0.00000000 </v>
    <v>       0.00000000       0.00000000       0.09448631 </v>
   </varray>
  </crystal>
  <varray name="positions" >
   <v>       0.49656285       0.63285050       0.49793630 </v>
   <v>       0.38346610       0.56128770       0.49811715 </v>
   <v>       0.38416885       0.43381620       0.49524705 </v>
   <v>       0.49808505       0.37348595       0.49611670 </v>
   <v>       0.61455860       0.43862880       0.50302760 </v>
   <v>       0.61445325       0.57436270       0.50281910 </v>
   <v>       0.50675850       0.73392585       0.50228800 </v>
   <v>       0.29388930       0.61535455       0.50791765 </v>
   <v>       0.29574795       0.37500065       0.49250300 </v>
   <v>       0.50004760       0.26947810       0.51068925 </v>
   <v>       0.70092390       0.37997850       0.49772035 </v>
   <v>       0.71133805       0.61183050       0.49561790 </v>
  </varray>
 </structure>
 <calculation>
  <scstep>
   <time name="dav">    0.22    0.22</time>
   <time name="total">    0.49    0.50</time>
   <energy>
    <i name="alphaZ">      3.48814018 </i>
    <i name="ewald">   1127.60093322 </i>
    <i name="hartreedc">  -1763.68512539 </i>
    <i name="XCdc">     91.24196418 </i>
    <i name="pawpsdc">    663.93644290 </i>
    <i name="pawaedc">   -667.40614445 </i>
    <i name="eentropy">     -0.00000000 </i>
    <i name="bandstr">   -198.17507446 </i>
    <i name="atom">    957.82965714 </i>
    <i name="e_fr_energy">    214.83079330 </i>
    <i name="e_wo_entrp">    214.83079330 </i>
    <i name="e_0_energy">    214.83079330 </i>
   </energy>
  </scstep>
  <scstep>
   <time name="dav">    0.26    0.26</time>
   <time name="total">    0.26    0.26</time>
   <energy>
    <i name="e_fr_energy">     -2.73662949 </i>
    <i name="e_wo_entrp">     -2.73662949 </i>
    <i name="e_0_energy">     -2.73662949 </i>
   </energy>
  </scstep>
  <scstep>
   <time name="dav">    0.22    0.22</time>
   <time name="total">    0.22    0.22</time>
   <energy>
    <i name="e_fr_energy">    -77.76098863 </i>
    <i name="e_wo_entrp">    -77.76098863 </i>
    <i name="e_0_energy">    -77.76098863 </i>
   </energy>
  </scstep>
  <scstep>
   <time name="dav">    0.20    0.20</time>
   <time name="total">    0.20    0.20</time>
   <energy>
    <i name="e_fr_energy">    -83.56615390 </i>
    <i name="e_wo_entrp">    -83.56615390 </i>
    <i name="e_0_energy">    -83.56615390 </i>
   </energy>
  </scstep>
  <scstep>
   <time name="dav">    0.26    0.27</time>
   <time name="total">    0.30    0.31</time>
   <energy>
    <i name="e_fr_energy">    -83.69052257 </i>
    <i name="e_wo_entrp">    -83.69052257 </i>
    <i name="e_0_energy">    -83.69052257 </i>
   </energy>
  </scstep>
  <scstep>
   <time name="dav">    0.22    0.22</time>
   <time name="total">    0.53    0.54</time>
   <energy>
    <i name="e_fr_energy">    -77.44925847 </i>
    <i name="e_wo_entrp">    -77.44925847 </i>
    <i name="e_0_energy">    -77.44925847 </i>
   </energy>
  </scstep>
  <scstep>
   <time name="dav">    0.24    0.24</time>
   <time name="total">    0.55    0.55</time>
   <energy>
    <i name="e_fr_energy">    -75.73292522 </i>
    <i name="e_wo_entrp">    -75.73292522 </i>
    <i name="e_0_energy">    -75.73292522 </i>
   </energy>
  </scstep>
  <scstep>
   <time name="dav">    0.26    0.26</time>
   <time name="total">    0.57    0.57</time>
   <energy>
    <i name="e_fr_energy">    -75.55534597 </i>
    <i name="e_wo_entrp">    -75.55534597 </i>
    <i name="e_0_energy">    -75.55534597 </i>
   </energy>
  </scstep>
  <scstep>
   <time name="dav">    0.22    0.22</time>
   <time name="total">    0.52    0.53</time>
   <energy>
    <i name="e_fr_energy">    -75.52565182 </i>
    <i name="e_wo_entrp">    -75.52565182 </i>
    <i name="e_0_energy">    -75.52565182 </i>
   </energy>
  </scstep>
  <scstep>
   <time name="dav">    0.24    0.24</time>
   <time name="total">    0.54    0.55</time>
   <energy>
    <i name="e_fr_energy">    -75.52041828 </i>
    <i name="e_wo_entrp">    -75.52041828 </i>
    <i name="e_0_energy">    -75.52041828 </i>
   </energy>
  </scstep>
  <scstep>
   <time name="dav">    0.20    0.20</time>
   <time name="total">    0.51    0.52</time>
   <energy>
    <i name="e_fr_energy">    -75.51421958 </i>
    <i name="e_wo_entrp">    -75.51421958 </i>
    <i name="e_0_energy">    -75.51421958 </i>
   </energy>
  </scstep>
  <scstep>
   <time name="dav">    0.22    0.22</time>
   <time name="total">    0.51    0.51</time>
   <energy>
    <i name="e_fr_energy">    -75.51720204 </i>
    <i name="e_wo_entrp">    -75.51720204 </i>
    <i name="e_0_energy">    -75.51720204 </i>
   </energy>
  </scstep>
  <scstep>
   <time name="dav">    0.22    0.22</time>
   <time name="total">    0.51    0.51</time>
   <energy>
    <i name="e_fr_energy">    -75.52752519 </i>
    <i name="e_wo_entrp">    -75.52752519 </i>
    <i name="e_0_energy">    -75.52752519 </i>
   </energy>
  </scstep>
  <scstep>
   <time name="dav">    0.22    0.22</time>
   <time name="total">    0.50    0.50</time>
   <energy>
    <i name="e_fr_energy">    -75.53441836 </i>
    <i name="e_wo_entrp">    -75.53441836 </i>
    <i name="e_0_energy">    -75.53441836 </i>
   </energy>
  </scstep>
  <scstep>
   <time name="dav">    0.22    0.22</time>
   <time name="total">    0.50    0.50</time>
   <energy>
    <i name="e_fr_energy">    -75.53722138 </i>
    <i name="e_wo_entrp">    -75.53722138 </i>
    <i name="e_0_energy">    -75.53722138 </i>
   </energy>
  </scstep>
  <scstep>
   <time name="dav">    0.22    0.22</time>
   <time name="total">    0.50    0.50</time>
   <energy>
    <i name="e_fr_energy">    -75.53849083 </i>
    <i name="e_wo_entrp">    -75.53849083 </i>
    <i name="e_0_energy">    -75.53849083 </i>
   </energy>
  </scstep>
  <scstep>
   <time name="dav">    0.22    0.22</time>
   <time name="total">    0.51    0.51</time>
   <energy>
    <i name="e_fr_energy">    -75.53895752 </i>
    <i name="e_wo_entrp">    -75.53895752 </i>
    <i name="e_0_energy">    -75.53895752 </i>
   </energy>
  </scstep>
  <scstep>
   <time name="dav">    0.23    0.23</time>
   <time name="total">    0.51    0.52</time>
   <energy>
    <i name="e_fr_energy">    -75.53906564 </i>
    <i name="e_wo_entrp">    -75.53906564 </i>
    <i name="e_0_energy">    -75.53906564 </i>
   </energy>
  </scstep>
  <scstep>
   <time name="dav">    0.18    0.19</time>
   <time name="total">    0.47    0.47</time>
   <energy>
    <i name="e_fr_energy">    -75.53910040 </i>
    <i name="e_wo_entrp">    -75.53910040 </i>
    <i name="e_0_energy">    -75.53910040 </i>
   </energy>
  </scstep>
  <scstep>
   <time name="dav">    0.18    0.19</time>
   <time name="total">    0.47    0.47</time>
   <energy>
    <i name="e_fr_energy">    -75.53911058 </i>
    <i name="e_wo_entrp">    -75.53911058 </i>
    <i name="e_0_energy">    -75.53911058 </i>
   </energy>
  </scstep>
  <scstep>
   <time name="dav">    0.19    0.19</time>
   <time name="total">    0.48    0.48</time>
   <energy>
    <i name="e_fr_energy">    -75.53911522 </i>
    <i name="e_wo_entrp">    -75.53911522 </i>
    <i name="e_0_energy">    -75.53911522 </i>
   </energy>
  </scstep>
  <scstep>
   <time name="dav">    0.15    0.15</time>
   <time name="total">    0.40    0.40</time>
   <energy>
    <i name="alphaZ">      3.48814018 </i>
    <i name="ewald">   1127.60093322 </i>
    <i name="hartreedc">  -1909.28711938 </i>
    <i name="XCdc">     98.03918226 </i>
    <i name="pawpsdc">   2491.71243126 </i>
    <i name="pawaedc">  -2495.95908484 </i>
    <i name="eentropy">     -0.00000000 </i>
    <i name="bandstr">   -348.96325589 </i>
    <i name="atom">    957.82965714 </i>
    <i name="e_fr_energy">    -75.53911605 </i>
    <i name="e_wo_entrp">    -75.53911605 </i>
    <i name="e_0_energy">    -75.53911605 </i>
   </energy>
  </scstep>
  <structure>
   <crystal>
    <varray name="basis" >
     <v>      10.58354422       0.00000000       0.00000000 </v>
     <v>       0.00000000      10.58354422       0.00000000 </v>
     <v>       0.00000000       0.00000000      10.58354422 </v>
    </varray>
    <i name="volume">   1185.47769178 </i>
    <varray name="rec_basis" >
     <v>       0.09448631       0.00000000       0.00000000 </v>
     <v>       0.00000000       0.09448631       0.00000000 </v>
     <v>       0.00000000       0.00000000       0.09448631 </v>
    </varray>
   </crystal>
   <varray name="positions" >
    <v>       0.49656285       0.63285050       0.49793630 </v>
    <v>       0.38346610       0.56128770       0.49811715 </v>
    <v>       0.38416885       0.43381620       0.49524705 </v>
    <v>       0.49808505       0.37348595       0.49611670 </v>
    <v>       0.61455860       0.43862880       0.50302760 </v>
    <v>       0.61445325       0.57436270       0.50281910 </v>
    <v>       0.50675850       0.73392585       0.50228800 </v>
    <v>       0.29388930       0.61535455       0.50791765 </v>
    <v>       0.29574795       0.37500065       0.49250300 </v>
    <v>       0.50004760       0.26947810       0.51068925 </v>
    <v>       0.70092390       0.37997850       0.49772035 </v>
    <v>       0.71133805       0.61183050       0.49561790 </v>
   </varray>
  </structure>
  <varray name="forces" >
   <v>       0.90082111      -0.25926954       0.41989117 </v>
   <v>      -0.52322481       3.38170585       0.22197658 </v>
   <v>      -1.56323032      -1.66219440      -0.13132783 </v>
   <v>       2.11382213      -1.56814262       0.87963004 </v>
   <v>      -0.73138154       0.23703585      -0.50107189 </v>
   <v>       0.48287497      -2.98604956      -0.59495578 </v>
   <v>      -0.93169513       0.67365911      -0.08848017 </v>
   <v>       0.44092952      -0.37816557      -0.29958491 </v>
   <v>       0.70395966       0.74711843       0.11974598 </v>
   <v>       0.02087889       0.48536870      -0.51137341 </v>
   <v>      -0.21737239       0.54905597       0.26480673 </v>
   <v>      -0.69638208       0.77987779       0.22074348 </v>
  </varray>
  <varray name="stress" >
   <v>      -3.48872047      -4.39600636      -0.03894413 </v>
   <v>      -4.39600636       2.21359422      -0.08729903 </v>
   <v>      -0.03894413      -0.08729902      -0.42993188 </v>
  </varray>
  <energy>
   <i name="e_fr_energy">    -75.53911605 </i>
   <i name="e_wo_entrp">    -75.53911605 </i>
   <i name="e_0_energy">    -75.53911605 </i>
  </energy>
  <time name="totalsc">   15.24   15.44</time>
  <eigenvalues>
   <array>
    <dimension dim="1">band</dimension>
    <dimension dim="2">kpoint</dimension>
    <dimension dim="3">spin</dimension>
    <field>eigene</field>
    <field>occ</field>
    <set>
     <set comment="spin 1">
      <set comment="kpoint 1">
       <r>  -20.8477    1.0000 </r>
       <r>  -18.1802    1.0000 </r>
       <r>  -17.8302    1.0000 </r>
       <r>  -14.4536    1.0000 </r>
       <r>  -14.2866    1.0000 </r>
       <r>  -12.3831    1.0000 </r>
       <r>  -10.8669    1.0000 </r>
       <r>  -10.3118    1.0000 </r>
       <r>   -9.9295    1.0000 </r>
       <r>   -9.4871    1.0000 </r>
       <r>   -8.7093    1.0000 </r>
       <r>   -7.7872    1.0000 </r>
       <r>   -7.5498    1.0000 </r>
       <r>   -6.0809    1.0000 </r>
       <r>   -5.7778    1.0000 </r>
       <r>   -0.9266    0.0000 </r>
       <r>   -0.8021    0.0000 </r>
       <r>   -0.4639    0.0000 </r>
       <r>    0.6964    0.0000 </r>
       <r>    0.7990    0.0000 </r>
       <r>    0.8514    0.0000 </r>
       <r>    0.8836    0.0000 </r>
       <r>    0.9802    0.0000 </r>
       <r>    1.4370    0.0000 </r>
      </set>
     </set>
    </set>
   </array>
  </eigenvalues>
  <separator name="orbital magnetization" >
   <v name="MAGDIPOLOUT">      0.00000000      0.00000000      0.00000000</v>
  </separator>
  <dos>
   <i name="efermi">     -5.52790120 </i>
   <total>
    <array>
     <dimension dim="1">gridpoints</dimension>
     <dimension dim="2">spin</dimension>
     <field>energy</field>
     <field>total</field>
     <field>integrated</field>
     <set>
      <set comment="spin 1">
       <r>   -21.9620     0.0000     0.0000 </r>
       <r>   -21.8803     0.0000     0.0000 </r>
       <r>   -21.7986     0.0000     0.0000 </r>
       <r>   -21.7168     0.0000     0.0000 </r>
       <r>   -21.6351     0.0000     0.0000 </r>
       <r>   -21.5534     0.0000     0.0000 </r>
       <r>   -21.4717     0.0000     0.0000 </r>
       <r>   -21.3900     0.0000     0.0000 </r>
       <r>   -21.3083     0.0000     0.0000 </r>
       <r>   -21.2266     0.0000     0.0000 </r>
       <r>   -21.1449     0.0000     0.0000 </r>
       <r>   -21.0632     0.0000     0.0000 </r>
       <r>   -20.9815     0.0019     0.0002 </r>
       <r>   -20.8997     1.7282     0.1414 </r>
       <r>   -20.8180    17.8429     1.5993 </r>
       <r>   -20.7363     4.8837     1.9984 </r>
       <r>   -20.6546     0.0199     2.0000 </r>
       <r>   -20.5729     0.0000     2.0000 </r>
       <r>   -20.4912     0.0000     2.0000 </r>
       <r>   -20.4095     0.0000     2.0000 </r>
       <r>   -20.3278     0.0000     2.0000 </r>
       <r>   -20.2461     0.0000     2.0000 </r>
       <r>   -20.1643     0.0000     2.0000 </r>
       <r>   -20.0826     0.0000     2.0000 </r>
       <r>   -20.0009     0.0000     2.0000 </r>
       <r>   -19.9192     0.0000     2.0000 </r>
       <r>   -19.8375     0.0000     2.0000 </r>
       <r>   -19.7558     0.0000     2.0000 </r>
       <r>   -19.6741     0.0000     2.0000 </r>
       <r>   -19.5924     0.0000     2.0000 </r>
       <r>   -19.5107     0.0000     2.0000 </r>
       <r>   -19.4289     0.0000     2.0000 </r>
       <r>   -19.3472     0.0000     2.0000 </r>
       <r>   -19.2655     0.0000     2.0000 </r>
       <r>   -19.1838     0.0000     2.0000 </r>
       <r>   -19.1021     0.0000     2.0000 </r>
       <r>   -19.0204     0.0000     2.0000 </r>
       <r>   -18.9387     0.0000     2.0000 </r>
       <r>   -18.8570     0.0000     2.0000 </r>
       <r>   -18.7753     0.0000     2.0000 </r>
       <r>   -18.6936     0.0000     2.0000 </r>
       <r>   -18.6118     0.0000     2.0000 </r>
       <r>   -18.5301     0.0000     2.0000 </r>
       <r>   -18.4484     0.0000     2.0000 </r>
       <r>   -18.3667     0.0000     2.0000 </r>
       <r>   -18.2850     0.0372     2.0030 </r>
       <r>   -18.2033     6.2568     2.5143 </r>
       <r>   -18.1216    16.9939     3.9029 </r>
       <r>   -18.0399     1.1878     3.9999 </r>
       <r>   -17.9582     0.0045     4.0003 </r>
       <r>   -17.8764     2.3295     4.1906 </r>
       <r>   -17.7947    18.2746     5.6839 </r>
       <r>   -17.7130     3.8576     5.9991 </r>
       <r>   -17.6313     0.0113     6.0000 </r>
       <r>   -17.5496     0.0000     6.0000 </r>
       <r>   -17.4679     0.0000     6.0000 </r>
       <r>   -17.3862     0.0000     6.0000 </r>
       <r>   -17.3045     0.0000     6.0000 </r>
       <r>   -17.2228     0.0000     6.0000 </r>
       <r>   -17.1410     0.0000     6.0000 </r>
       <r>   -17.0593     0.0000     6.0000 </r>
       <r>   -16.9776     0.0000     6.0000 </r>
       <r>   -16.8959     0.0000     6.0000 </r>
       <r>   -16.8142     0.0000     6.0000 </r>
       <r>   -16.7325     0.0000     6.0000 </r>
       <r>   -16.6508     0.0000     6.0000 </r>
       <r>   -16.5691     0.0000     6.0000 </r>
       <r>   -16.4874     0.0000     6.0000 </r>
       <r>   -16.4056     0.0000     6.0000 </r>
       <r>   -16.3239     0.0000     6.0000 </r>
       <r>   -16.2422     0.0000     6.0000 </r>
       <r>   -16.1605     0.0000     6.0000 </r>
       <r>   -16.0788     0.0000     6.0000 </r>
       <r>   -15.9971     0.0000     6.0000 </r>
       <r>   -15.9154     0.0000     6.0000 </r>
       <r>   -15.8337     0.0000     6.0000 </r>
       <r>   -15.7520     0.0000     6.0000 </r>
       <r>   -15.6703     0.0000     6.0000 </r>
       <r>   -15.5885     0.0000     6.0000 </r>
       <r>   -15.5068     0.0000     6.0000 </r>
       <r>   -15.4251     0.0000     6.0000 </r>
       <r>   -15.3434     0.0000     6.0000 </r>
       <r>   -15.2617     0.0000     6.0000 </r>
       <r>   -15.1800     0.0000     6.0000 </r>
       <r>   -15.0983     0.0000     6.0000 </r>
       <r>   -15.0166     0.0000     6.0000 </r>
       <r>   -14.9349     0.0000     6.0000 </r>
       <r>   -14.8531     0.0000     6.0000 </r>
       <r>   -14.7714     0.0000     6.0000 </r>
       <r>   -14.6897     0.0000     6.0000 </r>
       <r>   -14.6080     0.0002     6.0000 </r>
       <r>   -14.5263     0.4877     6.0399 </r>
       <r>   -14.4446    14.2226     7.2020 </r>
       <r>   -14.3629    10.0201     8.0207 </r>
       <r>   -14.2812    13.4835     9.1225 </r>
       <r>   -14.1995    10.5715     9.9863 </r>
       <r>   -14.1177     0.1675    10.0000 </r>
       <r>   -14.0360     0.0000    10.0000 </r>
       <r>   -13.9543     0.0000    10.0000 </r>
       <r>   -13.8726     0.0000    10.0000 </r>
       <r>   -13.7909     0.0000    10.0000 </r>
       <r>   -13.7092     0.0000    10.0000 </r>
       <r>   -13.6275     0.0000    10.0000 </r>
       <r>   -13.5458     0.0000    10.0000 </r>
       <r>   -13.4641     0.0000    10.0000 </r>
       <r>   -13.3823     0.0000    10.0000 </r>
       <r>   -13.3006     0.0000    10.0000 </r>
       <r>   -13.2189     0.0000    10.0000 </r>
       <r>   -13.1372     0.0000    10.0000 </r>
       <r>   -13.0555     0.0000    10.0000 </r>
       <r>   -12.9738     0.0000    10.0000 </r>
       <r>   -12.8921     0.0000    10.0000 </r>
       <r>   -12.8104     0.0000    10.0000 </r>
       <r>   -12.7287     0.0000    10.0000 </r>
       <r>   -12.6470     0.0000    10.0000 </r>
       <r>   -12.5652     0.0000    10.0000 </r>
       <r>   -12.4835     0.0549    10.0045 </r>
       <r>   -12.4018     7.2371    10.5958 </r>
       <r>   -12.3201    16.2672    11.9250 </r>
       <r>   -12.2384     0.9168    12.0000 </r>
       <r>   -12.1567     0.0005    12.0000 </r>
       <r>   -12.0750     0.0000    12.0000 </r>
       <r>   -11.9933     0.0000    12.0000 </r>
       <r>   -11.9116     0.0000    12.0000 </r>
       <r>   -11.8298     0.0000    12.0000 </r>
       <r>   -11.7481     0.0000    12.0000 </r>
       <r>   -11.6664     0.0000    12.0000 </r>
       <r>   -11.5847     0.0000    12.0000 </r>
       <r>   -11.5030     0.0000    12.0000 </r>
       <r>   -11.4213     0.0000    12.0000 </r>
       <r>   -11.3396     0.0000    12.0000 </r>
       <r>   -11.2579     0.0000    12.0000 </r>
       <r>   -11.1762     0.0000    12.0000 </r>
       <r>   -11.0944     0.0000    12.0000 </r>
       <r>   -11.0127     0.0005    12.0000 </r>
       <r>   -10.9310     0.8507    12.0695 </r>
       <r>   -10.8493    16.0413    13.3803 </r>
       <r>   -10.7676     7.5230    13.9950 </r>
       <r>   -10.6859     0.0611    14.0000 </r>
       <r>   -10.6042     0.0000    14.0000 </r>
       <r>   -10.5225     0.0000    14.0000 </r>
       <r>   -10.4408     0.0032    14.0003 </r>
       <r>   -10.3591     2.2125    14.1811 </r>
       <r>   -10.2773    18.2191    15.6697 </r>
       <r>   -10.1956     4.0292    15.9990 </r>
       <r>   -10.1139     0.0125    16.0000 </r>
       <r>   -10.0322     0.0449    16.0037 </r>
       <r>    -9.9505     6.7148    16.5523 </r>
       <r>    -9.8688    16.6644    17.9140 </r>
       <r>    -9.7871     1.0518    17.9999 </r>
       <r>    -9.7054     0.0007    18.0000 </r>
       <r>    -9.6237     0.0014    18.0001 </r>
       <r>    -9.5419     1.4778    18.1209 </r>
       <r>    -9.4602    17.5236    19.5527 </r>
       <r>    -9.3785     5.4476    19.9979 </r>
       <r>    -9.2968     0.0261    20.0000 </r>
       <r>    -9.2151     0.0000    20.0000 </r>
       <r>    -9.1334     0.0000    20.0000 </r>
       <r>    -9.0517     0.0000    20.0000 </r>
       <r>    -8.9700     0.0000    20.0000 </r>
       <r>    -8.8883     0.0000    20.0000 </r>
       <r>    -8.8065     0.0727    20.0059 </r>
       <r>    -8.7248     8.0061    20.6601 </r>
       <r>    -8.6431    15.6477    21.9387 </r>
       <r>    -8.5614     0.7497    22.0000 </r>
       <r>    -8.4797     0.0004    22.0000 </r>
       <r>    -8.3980     0.0000    22.0000 </r>
       <r>    -8.3163     0.0000    22.0000 </r>
       <r>    -8.2346     0.0000    22.0000 </r>
       <r>    -8.1529     0.0000    22.0000 </r>
       <r>    -8.0711     0.0000    22.0000 </r>
       <r>    -7.9894     0.0000    22.0000 </r>
       <r>    -7.9077     0.0080    22.0007 </r>
       <r>    -7.8260     3.3236    22.2722 </r>
       <r>    -7.7443    18.3906    23.7749 </r>
       <r>    -7.6626     2.7665    24.0010 </r>
       <r>    -7.5809     4.6207    24.3786 </r>
       <r>    -7.4992    17.9767    25.8474 </r>
       <r>    -7.4175     1.8648    25.9998 </r>
       <r>    -7.3358     0.0022    26.0000 </r>
       <r>    -7.2540     0.0000    26.0000 </r>
       <r>    -7.1723     0.0000    26.0000 </r>
       <r>    -7.0906     0.0000    26.0000 </r>
       <r>    -7.0089     0.0000    26.0000 </r>
       <r>    -6.9272     0.0000    26.0000 </r>
       <r>    -6.8455     0.0000    26.0000 </r>
       <r>    -6.7638     0.0000    26.0000 </r>
       <r>    -6.6821     0.0000    26.0000 </r>
       <r>    -6.6004     0.0000    26.0000 </r>
       <r>    -6.5186     0.0000    26.0000 </r>
       <r>    -6.4369     0.0000    26.0000 </r>
       <r>    -6.3552     0.0000    26.0000 </r>
       <r>    -6.2735     0.0000    26.0000 </r>
       <r>    -6.1918     0.0210    26.0017 </r>
       <r>    -6.1101     4.9897    26.4094 </r>
       <r>    -6.0284    17.7866    27.8628 </r>
       <r>    -5.9467     1.6776    27.9999 </r>
       <r>    -5.8650     0.1691    28.0137 </r>
       <r>    -5.7832    10.5668    28.8771 </r>
       <r>    -5.7015    13.3625    29.9690 </r>
       <r>    -5.6198     0.3799    30.0000 </r>
       <r>    -5.5381     0.0001    30.0000 </r>
       <r>    -5.4564     0.0000    30.0000 </r>
       <r>    -5.3747     0.0000    30.0000 </r>
       <r>    -5.2930     0.0000    30.0000 </r>
       <r>    -5.2113     0.0000    30.0000 </r>
       <r>    -5.1296     0.0000    30.0000 </r>
       <r>    -5.0479     0.0000    30.0000 </r>
       <r>    -4.9661     0.0000    30.0000 </r>
       <r>    -4.8844     0.0000    30.0000 </r>
       <r>    -4.8027     0.0000    30.0000 </r>
       <r>    -4.7210     0.0000    30.0000 </r>
       <r>    -4.6393     0.0000    30.0000 </r>
       <r>    -4.5576     0.0000    30.0000 </r>
       <r>    -4.4759     0.0000    30.0000 </r>
       <r>    -4.3942     0.0000    30.0000 </r>
       <r>    -4.3125     0.0000    30.0000 </r>
       <r>    -4.2307     0.0000    30.0000 </r>
       <r>    -4.1490     0.0000    30.0000 </r>
       <r>    -4.0673     0.0000    30.0000 </r>
       <r>    -3.9856     0.0000    30.0000 </r>
       <r>    -3.9039     0.0000    30.0000 </r>
       <r>    -3.8222     0.0000    30.0000 </r>
       <r>    -3.7405     0.0000    30.0000 </r>
       <r>    -3.6588     0.0000    30.0000 </r>
       <r>    -3.5771     0.0000    30.0000 </r>
       <r>    -3.4953     0.0000    30.0000 </r>
       <r>    -3.4136     0.0000    30.0000 </r>
       <r>    -3.3319     0.0000    30.0000 </r>
       <r>    -3.2502     0.0000    30.0000 </r>
       <r>    -3.1685     0.0000    30.0000 </r>
       <r>    -3.0868     0.0000    30.0000 </r>
       <r>    -3.0051     0.0000    30.0000 </r>
       <r>    -2.9234     0.0000    30.0000 </r>
       <r>    -2.8417     0.0000    30.0000 </r>
       <r>    -2.7599     0.0000    30.0000 </r>
       <r>    -2.6782     0.0000    30.0000 </r>
       <r>    -2.5965     0.0000    30.0000 </r>
       <r>    -2.5148     0.0000    30.0000 </r>
       <r>    -2.4331     0.0000    30.0000 </r>
       <r>    -2.3514     0.0000    30.0000 </r>
       <r>    -2.2697     0.0000    30.0000 </r>
       <r>    -2.1880     0.0000    30.0000 </r>
       <r>    -2.1063     0.0000    30.0000 </r>
       <r>    -2.0246     0.0000    30.0000 </r>
       <r>    -1.9428     0.0000    30.0000 </r>
       <r>    -1.8611     0.0000    30.0000 </r>
       <r>    -1.7794     0.0000    30.0000 </r>
       <r>    -1.6977     0.0000    30.0000 </r>
       <r>    -1.6160     0.0000    30.0000 </r>
       <r>    -1.5343     0.0000    30.0000 </r>
       <r>    -1.4526     0.0000    30.0000 </r>
       <r>    -1.3709     0.0000    30.0000 </r>
       <r>    -1.2892     0.0000    30.0000 </r>
       <r>    -1.2074     0.0000    30.0000 </r>
       <r>    -1.1257     0.0000    30.0000 </r>
       <r>    -1.0440     0.0109    30.0009 </r>
       <r>    -0.9623     3.8051    30.3118 </r>
       <r>    -0.8806    18.6121    31.8326 </r>
       <r>    -0.7989    15.1581    33.0712 </r>
       <r>    -0.7172    11.1668    33.9836 </r>
       <r>    -0.6355     0.2002    34.0000 </r>
       <r>    -0.5538     0.1346    34.0110 </r>
       <r>    -0.4720     9.8606    34.8167 </r>
       <r>    -0.3903    14.0215    35.9624 </r>
       <r>    -0.3086     0.4598    36.0000 </r>
       <r>    -0.2269     0.0001    36.0000 </r>
       <r>    -0.1452     0.0000    36.0000 </r>
       <r>    -0.0635     0.0000    36.0000 </r>
       <r>     0.0182     0.0000    36.0000 </r>
       <r>     0.0999     0.0000    36.0000 </r>
       <r>     0.1816     0.0000    36.0000 </r>
       <r>     0.2634     0.0000    36.0000 </r>
       <r>     0.3451     0.0000    36.0000 </r>
       <r>     0.4268     0.0000    36.0000 </r>
       <r>     0.5085     0.0000    36.0000 </r>
       <r>     0.5902     0.0327    36.0027 </r>
       <r>     0.6719     5.9527    36.4891 </r>
       <r>     0.7536    19.7067    38.0993 </r>
       <r>     0.8353    29.5817    40.5165 </r>
       <r>     0.9170    38.5449    43.6660 </r>
       <r>     0.9987    21.2193    45.3998 </r>
       <r>     1.0805     7.2892    45.9954 </r>
       <r>     1.1622     0.0557    46.0000 </r>
       <r>     1.2439     0.0000    46.0000 </r>
       <r>     1.3256     0.0199    46.0016 </r>
       <r>     1.4073     4.8837    46.4007 </r>
       <r>     1.4890    17.8429    47.8586 </r>
       <r>     1.5707     1.7282    47.9998 </r>
       <r>     1.6524     0.0019    48.0000 </r>
       <r>     1.7341     0.0000    48.0000 </r>
       <r>     1.8159     0.0000    48.0000 </r>
       <r>     1.8976     0.0000    48.0000 </r>
       <r>     1.9793     0.0000    48.0000 </r>
       <r>     2.0610     0.0000    48.0000 </r>
       <r>     2.1427     0.0000    48.0000 </r>
       <r>     2.2244     0.0000    48.0000 </r>
       <r>     2.3061     0.0000    48.0000 </r>
       <r>     2.3878     0.0000    48.0000 </r>
       <r>     2.4695     0.0000    48.0000 </r>
       <r>     2.5513     0.0000    48.0000 </r>
      </set>
     </set>
    </array>
   </total>
  </dos>
 </calculation>
 <structure name="finalpos" >
  <crystal>
   <varray name="basis" >
    <v>      10.58354422       0.00000000       0.00000000 </v>
    <v>       0.00000000      10.58354422       0.00000000 </v>
    <v>       0.00000000       0.00000000      10.58354422 </v>
   </varray>
   <i name="volume">   1185.47769178 </i>
   <varray name="rec_basis" >
    <v>       0.09448631       0.00000000       0.00000000 </v>
    <v>       0.00000000       0.09448631       0.00000000 </v>
    <v>       0.00000000       0.00000000       0.09448631 </v>
   </varray>
  </crystal>
  <varray name="positions" >
   <v>       0.49656285       0.63285050       0.49793630 </v>
   <v>       0.38346610       0.56128770       0.49811715 </v>
   <v>       0.38416885       0.43381620       0.49524705 </v>
   <v>       0.49808505       0.37348595       0.49611670 </v>
   <v>       0.61455860       0.43862880       0.50302760 </v>
   <v>       0.61445325       0.57436270       0.50281910 </v>
   <v>       0.50675850       0.73392585       0.50228800 </v>
   <v>       0.29388930       0.61535455       0.50791765 </v>
   <v>       0.29574795       0.37500065       0.49250300 </v>
   <v>       0.50004760       0.26947810       0.51068925 </v>
   <v>       0.70092390       0.37997850       0.49772035 </v>
   <v>       0.71133805       0.61183050       0.49561790 </v>
  </varray>
 </structure>
</modeling>
