<?xml version="1.0" encoding="ISO-8859-1"?>
<modeling>
 <generator>
  <i name="program" type="string">vasp </i>
  <i name="version" type="string">6.2.0  </i>
  <i name="subversion" type="string">18Jan21 (build Mar 25 2021 14:28:09) complex                          parallel </i>
  <i name="platform" type="string">LinuxGNU </i>
  <i name="date" type="string">2022 08 19 </i>
  <i name="time" type="string">10:42:14 </i>
 </generator>
 <incar>
  <i type="string" name="SYSTEM">al</i>
  <i type="int" name="ISTART">     0</i>
  <i type="string" name="PREC">Accurate</i>
  <i type="string" name="ALGO">Normal</i>
  <i type="int" name="NSIM">     8</i>
  <i type="int" name="NELM">   200</i>
  <i type="int" name="IBRION">    -1</i>
  <i name="EDIFF">      0.00000100</i>
  <i type="int" name="NSW">     0</i>
  <i name="ENCUT">    600.00000000</i>
  <i type="string" name="LREAL">Auto</i>
  <i type="int" name="ISMEAR">     0</i>
  <i name="SIGMA">      0.05000000</i>
  <i type="int" name="LMAXPAW">    -1</i>
  <i type="logical" name="LWAVE"> F  </i>
  <i type="logical" name="LCHARG"> T  </i>
  <i type="string" name="GGA">PE</i>
 </incar>
 <primitive_cell>
  <structure name="primitive_cell" >
   <crystal>
    <varray name="basis" >
     <v>       8.07809510       0.00000000       0.00000000 </v>
     <v>       0.00000000       8.07809510       0.00000000 </v>
     <v>       0.00000000       0.00000000       8.07809510 </v>
    </varray>
    <i name="volume">    527.14110776 </i>
    <varray name="rec_basis" >
     <v>       0.12379156       0.00000000       0.00000000 </v>
     <v>       0.00000000       0.12379156       0.00000000 </v>
     <v>       0.00000000       0.00000000       0.12379156 </v>
    </varray>
   </crystal>
   <varray name="positions" >
    <v>       0.99384595       0.98601367       0.00958546 </v>
    <v>       0.00072549       0.24724413       0.22989544 </v>
    <v>       0.24355010       0.01324047       0.25199451 </v>
    <v>       0.25456616       0.24952038       0.00543749 </v>
    <v>       0.00190456       0.00899175       0.51619988 </v>
    <v>       0.98312276       0.26130134       0.74327341 </v>
    <v>       0.25873089       0.99243900       0.76724240 </v>
    <v>       0.26098073       0.24218643       0.47610064 </v>
    <v>       0.99730244       0.50127198       0.99931376 </v>
    <v>       0.01762948       0.74042701       0.25115919 </v>
    <v>       0.26876802       0.49760105       0.25078496 </v>
    <v>       0.25116481       0.73538710       0.98483135 </v>
    <v>       0.00151797       0.48195700       0.49003455 </v>
    <v>       0.98406771       0.75862420       0.73638244 </v>
    <v>       0.22987364       0.47704447       0.73811768 </v>
    <v>       0.22889005       0.74723939       0.50784408 </v>
    <v>       0.49400191       0.99876644       0.98783432 </v>
    <v>       0.50460188       0.23239502       0.23102943 </v>
    <v>       0.73979111       0.98065184       0.23580345 </v>
    <v>       0.74740344       0.24437955       0.00932269 </v>
    <v>       0.49794384       0.00327665       0.49875626 </v>
    <v>       0.48992358       0.27288020       0.74201878 </v>
    <v>       0.74545048       0.01191972       0.74599035 </v>
    <v>       0.75392109       0.25084234       0.49236745 </v>
    <v>       0.50508121       0.50658534       0.01604028 </v>
    <v>       0.48864934       0.74693656       0.25432090 </v>
    <v>       0.75472307       0.47903218       0.25755563 </v>
    <v>       0.74756654       0.75555751       0.00202242 </v>
    <v>       0.51296492       0.51540315       0.50341236 </v>
    <v>       0.50649540       0.75221129       0.74997222 </v>
    <v>       0.75580917       0.51165244       0.73917991 </v>
    <v>       0.76964834       0.76439250       0.48557828 </v>
   </varray>
  </structure>
  <varray name="primitive_index" >
   <v type="int" >        1 </v>
   <v type="int" >        2 </v>
   <v type="int" >        3 </v>
   <v type="int" >        4 </v>
   <v type="int" >        5 </v>
   <v type="int" >        6 </v>
   <v type="int" >        7 </v>
   <v type="int" >        8 </v>
   <v type="int" >        9 </v>
   <v type="int" >       10 </v>
   <v type="int" >       11 </v>
   <v type="int" >       12 </v>
   <v type="int" >       13 </v>
   <v type="int" >       14 </v>
   <v type="int" >       15 </v>
   <v type="int" >       16 </v>
   <v type="int" >       17 </v>
   <v type="int" >       18 </v>
   <v type="int" >       19 </v>
   <v type="int" >       20 </v>
   <v type="int" >       21 </v>
   <v type="int" >       22 </v>
   <v type="int" >       23 </v>
   <v type="int" >       24 </v>
   <v type="int" >       25 </v>
   <v type="int" >       26 </v>
   <v type="int" >       27 </v>
   <v type="int" >       28 </v>
   <v type="int" >       29 </v>
   <v type="int" >       30 </v>
   <v type="int" >       31 </v>
   <v type="int" >       32 </v>
  </varray>
 </primitive_cell>
 <kpoints>
  <generation param="Gamma">
   <v type="int" name="divisions">       9        9        9 </v>
   <v name="usershift">      0.00000000       0.00000000       0.00000000 </v>
   <v name="genvec1">      0.11111111       0.00000000       0.00000000 </v>
   <v name="genvec2">      0.00000000       0.11111111       0.00000000 </v>
   <v name="genvec3">      0.00000000       0.00000000       0.11111111 </v>
   <v name="shift">      0.00000000       0.00000000       0.00000000 </v>
  </generation>
  <varray name="kpointlist" >
   <v>       0.00000000       0.00000000       0.00000000 </v>
   <v>       0.11111111       0.00000000       0.00000000 </v>
   <v>       0.00000000       0.11111111       0.00000000 </v>
   <v>       0.00000000       0.00000000       0.11111111 </v>
   <v>       0.22222222       0.00000000       0.00000000 </v>
   <v>       0.00000000       0.22222222       0.00000000 </v>
   <v>       0.00000000       0.00000000       0.22222222 </v>
   <v>       0.33333333       0.00000000       0.00000000 </v>
   <v>       0.00000000       0.33333333       0.00000000 </v>
   <v>       0.00000000       0.00000000       0.33333333 </v>
   <v>       0.44444444       0.00000000       0.00000000 </v>
   <v>       0.00000000       0.44444444       0.00000000 </v>
   <v>       0.00000000       0.00000000       0.44444444 </v>
   <v>       0.11111111       0.11111111       0.00000000 </v>
   <v>       0.00000000       0.11111111       0.11111111 </v>
   <v>       0.11111111       0.00000000       0.11111111 </v>
   <v>      -0.11111111       0.11111111       0.00000000 </v>
   <v>      -0.11111111       0.00000000       0.11111111 </v>
   <v>       0.00000000      -0.11111111       0.11111111 </v>
   <v>       0.22222222       0.11111111       0.00000000 </v>
   <v>       0.00000000       0.22222222       0.11111111 </v>
   <v>       0.11111111       0.00000000       0.22222222 </v>
   <v>      -0.11111111       0.22222222       0.00000000 </v>
   <v>      -0.22222222       0.00000000       0.11111111 </v>
   <v>       0.00000000       0.11111111       0.22222222 </v>
   <v>       0.00000000      -0.22222222       0.11111111 </v>
   <v>      -0.11111111       0.00000000       0.22222222 </v>
   <v>       0.22222222       0.00000000       0.11111111 </v>
   <v>       0.00000000      -0.11111111       0.22222222 </v>
   <v>       0.22222222      -0.11111111       0.00000000 </v>
   <v>       0.11111111       0.22222222       0.00000000 </v>
   <v>       0.33333333       0.11111111       0.00000000 </v>
   <v>       0.00000000       0.33333333       0.11111111 </v>
   <v>       0.11111111       0.00000000       0.33333333 </v>
   <v>      -0.11111111       0.33333333       0.00000000 </v>
   <v>      -0.33333333       0.00000000       0.11111111 </v>
   <v>       0.00000000       0.11111111       0.33333333 </v>
   <v>       0.00000000      -0.33333333       0.11111111 </v>
   <v>      -0.11111111       0.00000000       0.33333333 </v>
   <v>       0.33333333       0.00000000       0.11111111 </v>
   <v>       0.00000000      -0.11111111       0.33333333 </v>
   <v>       0.33333333      -0.11111111       0.00000000 </v>
   <v>       0.11111111       0.33333333       0.00000000 </v>
   <v>       0.44444444       0.11111111       0.00000000 </v>
   <v>       0.00000000       0.44444444       0.11111111 </v>
   <v>       0.11111111       0.00000000       0.44444444 </v>
   <v>      -0.11111111       0.44444444       0.00000000 </v>
   <v>      -0.44444444       0.00000000       0.11111111 </v>
   <v>       0.00000000       0.11111111       0.44444444 </v>
   <v>       0.00000000      -0.44444444       0.11111111 </v>
   <v>      -0.11111111       0.00000000       0.44444444 </v>
   <v>       0.44444444       0.00000000       0.11111111 </v>
   <v>       0.00000000      -0.11111111       0.44444444 </v>
   <v>       0.44444444      -0.11111111       0.00000000 </v>
   <v>       0.11111111       0.44444444       0.00000000 </v>
   <v>       0.22222222       0.22222222       0.00000000 </v>
   <v>       0.00000000       0.22222222       0.22222222 </v>
   <v>       0.22222222       0.00000000       0.22222222 </v>
   <v>      -0.22222222       0.22222222       0.00000000 </v>
   <v>      -0.22222222       0.00000000       0.22222222 </v>
   <v>       0.00000000      -0.22222222       0.22222222 </v>
   <v>       0.33333333       0.22222222       0.00000000 </v>
   <v>       0.00000000       0.33333333       0.22222222 </v>
   <v>       0.22222222       0.00000000       0.33333333 </v>
   <v>      -0.22222222       0.33333333       0.00000000 </v>
   <v>      -0.33333333       0.00000000       0.22222222 </v>
   <v>       0.00000000       0.22222222       0.33333333 </v>
   <v>       0.00000000      -0.33333333       0.22222222 </v>
   <v>      -0.22222222       0.00000000       0.33333333 </v>
   <v>       0.33333333       0.00000000       0.22222222 </v>
   <v>       0.00000000      -0.22222222       0.33333333 </v>
   <v>       0.33333333      -0.22222222       0.00000000 </v>
   <v>       0.22222222       0.33333333       0.00000000 </v>
   <v>       0.44444444       0.22222222       0.00000000 </v>
   <v>       0.00000000       0.44444444       0.22222222 </v>
   <v>       0.22222222       0.00000000       0.44444444 </v>
   <v>      -0.22222222       0.44444444       0.00000000 </v>
   <v>      -0.44444444       0.00000000       0.22222222 </v>
   <v>       0.00000000       0.22222222       0.44444444 </v>
   <v>       0.00000000      -0.44444444       0.22222222 </v>
   <v>      -0.22222222       0.00000000       0.44444444 </v>
   <v>       0.44444444       0.00000000       0.22222222 </v>
   <v>       0.00000000      -0.22222222       0.44444444 </v>
   <v>       0.44444444      -0.22222222       0.00000000 </v>
   <v>       0.22222222       0.44444444       0.00000000 </v>
   <v>       0.33333333       0.33333333       0.00000000 </v>
   <v>       0.00000000       0.33333333       0.33333333 </v>
   <v>       0.33333333       0.00000000       0.33333333 </v>
   <v>      -0.33333333       0.33333333       0.00000000 </v>
   <v>      -0.33333333       0.00000000       0.33333333 </v>
   <v>       0.00000000      -0.33333333       0.33333333 </v>
   <v>       0.44444444       0.33333333       0.00000000 </v>
   <v>       0.00000000       0.44444444       0.33333333 </v>
   <v>       0.33333333       0.00000000       0.44444444 </v>
   <v>      -0.33333333       0.44444444       0.00000000 </v>
   <v>      -0.44444444       0.00000000       0.33333333 </v>
   <v>       0.00000000       0.33333333       0.44444444 </v>
   <v>       0.00000000      -0.44444444       0.33333333 </v>
   <v>      -0.33333333       0.00000000       0.44444444 </v>
   <v>       0.44444444       0.00000000       0.33333333 </v>
   <v>       0.00000000      -0.33333333       0.44444444 </v>
   <v>       0.44444444      -0.33333333       0.00000000 </v>
   <v>       0.33333333       0.44444444       0.00000000 </v>
   <v>       0.44444444       0.44444444       0.00000000 </v>
   <v>       0.00000000       0.44444444       0.44444444 </v>
   <v>       0.44444444       0.00000000       0.44444444 </v>
   <v>      -0.44444444       0.44444444       0.00000000 </v>
   <v>      -0.44444444       0.00000000       0.44444444 </v>
   <v>       0.00000000      -0.44444444       0.44444444 </v>
   <v>       0.11111111       0.11111111       0.11111111 </v>
   <v>      -0.11111111       0.11111111       0.11111111 </v>
   <v>      -0.11111111      -0.11111111       0.11111111 </v>
   <v>       0.11111111      -0.11111111       0.11111111 </v>
   <v>       0.22222222       0.11111111       0.11111111 </v>
   <v>       0.11111111       0.22222222       0.11111111 </v>
   <v>       0.11111111       0.11111111       0.22222222 </v>
   <v>      -0.11111111       0.22222222       0.11111111 </v>
   <v>      -0.22222222       0.11111111       0.11111111 </v>
   <v>      -0.11111111       0.11111111       0.22222222 </v>
   <v>      -0.22222222      -0.11111111       0.11111111 </v>
   <v>      -0.11111111      -0.22222222       0.11111111 </v>
   <v>      -0.11111111      -0.11111111       0.22222222 </v>
   <v>       0.11111111      -0.22222222       0.11111111 </v>
   <v>       0.22222222      -0.11111111       0.11111111 </v>
   <v>       0.11111111      -0.11111111       0.22222222 </v>
   <v>       0.33333333       0.11111111       0.11111111 </v>
   <v>       0.11111111       0.33333333       0.11111111 </v>
   <v>       0.11111111       0.11111111       0.33333333 </v>
   <v>      -0.11111111       0.33333333       0.11111111 </v>
   <v>      -0.33333333       0.11111111       0.11111111 </v>
   <v>      -0.11111111       0.11111111       0.33333333 </v>
   <v>      -0.33333333      -0.11111111       0.11111111 </v>
   <v>      -0.11111111      -0.33333333       0.11111111 </v>
   <v>      -0.11111111      -0.11111111       0.33333333 </v>
   <v>       0.11111111      -0.33333333       0.11111111 </v>
   <v>       0.33333333      -0.11111111       0.11111111 </v>
   <v>       0.11111111      -0.11111111       0.33333333 </v>
   <v>       0.44444444       0.11111111       0.11111111 </v>
   <v>       0.11111111       0.44444444       0.11111111 </v>
   <v>       0.11111111       0.11111111       0.44444444 </v>
   <v>      -0.11111111       0.44444444       0.11111111 </v>
   <v>      -0.44444444       0.11111111       0.11111111 </v>
   <v>      -0.11111111       0.11111111       0.44444444 </v>
   <v>      -0.44444444      -0.11111111       0.11111111 </v>
   <v>      -0.11111111      -0.44444444       0.11111111 </v>
   <v>      -0.11111111      -0.11111111       0.44444444 </v>
   <v>       0.11111111      -0.44444444       0.11111111 </v>
   <v>       0.44444444      -0.11111111       0.11111111 </v>
   <v>       0.11111111      -0.11111111       0.44444444 </v>
   <v>       0.22222222       0.22222222       0.11111111 </v>
   <v>       0.11111111       0.22222222       0.22222222 </v>
   <v>       0.22222222       0.11111111       0.22222222 </v>
   <v>      -0.22222222       0.22222222       0.11111111 </v>
   <v>      -0.22222222       0.11111111       0.22222222 </v>
   <v>      -0.11111111       0.22222222       0.22222222 </v>
   <v>      -0.22222222      -0.22222222       0.11111111 </v>
   <v>      -0.11111111      -0.22222222       0.22222222 </v>
   <v>      -0.22222222      -0.11111111       0.22222222 </v>
   <v>       0.22222222      -0.22222222       0.11111111 </v>
   <v>       0.22222222      -0.11111111       0.22222222 </v>
   <v>       0.11111111      -0.22222222       0.22222222 </v>
   <v>       0.33333333       0.22222222       0.11111111 </v>
   <v>       0.11111111       0.33333333       0.22222222 </v>
   <v>       0.22222222       0.11111111       0.33333333 </v>
   <v>      -0.22222222       0.33333333       0.11111111 </v>
   <v>      -0.33333333       0.11111111       0.22222222 </v>
   <v>      -0.11111111       0.22222222       0.33333333 </v>
   <v>      -0.33333333      -0.22222222       0.11111111 </v>
   <v>      -0.11111111      -0.33333333       0.22222222 </v>
   <v>      -0.22222222      -0.11111111       0.33333333 </v>
   <v>       0.22222222      -0.33333333       0.11111111 </v>
   <v>       0.33333333      -0.11111111       0.22222222 </v>
   <v>       0.11111111      -0.22222222       0.33333333 </v>
   <v>       0.11111111      -0.33333333      -0.22222222 </v>
   <v>       0.22222222      -0.11111111      -0.33333333 </v>
   <v>       0.33333333      -0.22222222      -0.11111111 </v>
   <v>       0.11111111       0.22222222      -0.33333333 </v>
   <v>       0.22222222       0.33333333      -0.11111111 </v>
   <v>       0.33333333       0.11111111      -0.22222222 </v>
   <v>      -0.22222222       0.11111111      -0.33333333 </v>
   <v>      -0.33333333       0.22222222      -0.11111111 </v>
   <v>      -0.11111111       0.33333333      -0.22222222 </v>
   <v>      -0.33333333      -0.11111111      -0.22222222 </v>
   <v>      -0.22222222      -0.33333333      -0.11111111 </v>
   <v>      -0.11111111      -0.22222222      -0.33333333 </v>
   <v>       0.44444444       0.22222222       0.11111111 </v>
   <v>       0.11111111       0.44444444       0.22222222 </v>
   <v>       0.22222222       0.11111111       0.44444444 </v>
   <v>      -0.22222222       0.44444444       0.11111111 </v>
   <v>      -0.44444444       0.11111111       0.22222222 </v>
   <v>      -0.11111111       0.22222222       0.44444444 </v>
   <v>      -0.44444444      -0.22222222       0.11111111 </v>
   <v>      -0.11111111      -0.44444444       0.22222222 </v>
   <v>      -0.22222222      -0.11111111       0.44444444 </v>
   <v>       0.22222222      -0.44444444       0.11111111 </v>
   <v>       0.44444444      -0.11111111       0.22222222 </v>
   <v>       0.11111111      -0.22222222       0.44444444 </v>
   <v>       0.11111111      -0.44444444      -0.22222222 </v>
   <v>       0.22222222      -0.11111111      -0.44444444 </v>
   <v>       0.44444444      -0.22222222      -0.11111111 </v>
   <v>       0.11111111       0.22222222      -0.44444444 </v>
   <v>       0.22222222       0.44444444      -0.11111111 </v>
   <v>       0.44444444       0.11111111      -0.22222222 </v>
   <v>      -0.22222222       0.11111111      -0.44444444 </v>
   <v>      -0.44444444       0.22222222      -0.11111111 </v>
   <v>      -0.11111111       0.44444444      -0.22222222 </v>
   <v>      -0.44444444      -0.11111111      -0.22222222 </v>
   <v>      -0.22222222      -0.44444444      -0.11111111 </v>
   <v>      -0.11111111      -0.22222222      -0.44444444 </v>
   <v>       0.33333333       0.33333333       0.11111111 </v>
   <v>       0.11111111       0.33333333       0.33333333 </v>
   <v>       0.33333333       0.11111111       0.33333333 </v>
   <v>      -0.33333333       0.33333333       0.11111111 </v>
   <v>      -0.33333333       0.11111111       0.33333333 </v>
   <v>      -0.11111111       0.33333333       0.33333333 </v>
   <v>      -0.33333333      -0.33333333       0.11111111 </v>
   <v>      -0.11111111      -0.33333333       0.33333333 </v>
   <v>      -0.33333333      -0.11111111       0.33333333 </v>
   <v>       0.33333333      -0.33333333       0.11111111 </v>
   <v>       0.33333333      -0.11111111       0.33333333 </v>
   <v>       0.11111111      -0.33333333       0.33333333 </v>
   <v>       0.44444444       0.33333333       0.11111111 </v>
   <v>       0.11111111       0.44444444       0.33333333 </v>
   <v>       0.33333333       0.11111111       0.44444444 </v>
   <v>      -0.33333333       0.44444444       0.11111111 </v>
   <v>      -0.44444444       0.11111111       0.33333333 </v>
   <v>      -0.11111111       0.33333333       0.44444444 </v>
   <v>      -0.44444444      -0.33333333       0.11111111 </v>
   <v>      -0.11111111      -0.44444444       0.33333333 </v>
   <v>      -0.33333333      -0.11111111       0.44444444 </v>
   <v>       0.33333333      -0.44444444       0.11111111 </v>
   <v>       0.44444444      -0.11111111       0.33333333 </v>
   <v>       0.11111111      -0.33333333       0.44444444 </v>
   <v>       0.11111111      -0.44444444      -0.33333333 </v>
   <v>       0.33333333      -0.11111111      -0.44444444 </v>
   <v>       0.44444444      -0.33333333      -0.11111111 </v>
   <v>       0.11111111       0.33333333      -0.44444444 </v>
   <v>       0.33333333       0.44444444      -0.11111111 </v>
   <v>       0.44444444       0.11111111      -0.33333333 </v>
   <v>      -0.33333333       0.11111111      -0.44444444 </v>
   <v>      -0.44444444       0.33333333      -0.11111111 </v>
   <v>      -0.11111111       0.44444444      -0.33333333 </v>
   <v>      -0.44444444      -0.11111111      -0.33333333 </v>
   <v>      -0.33333333      -0.44444444      -0.11111111 </v>
   <v>      -0.11111111      -0.33333333      -0.44444444 </v>
   <v>       0.44444444       0.44444444       0.11111111 </v>
   <v>       0.11111111       0.44444444       0.44444444 </v>
   <v>       0.44444444       0.11111111       0.44444444 </v>
   <v>      -0.44444444       0.44444444       0.11111111 </v>
   <v>      -0.44444444       0.11111111       0.44444444 </v>
   <v>      -0.11111111       0.44444444       0.44444444 </v>
   <v>      -0.44444444      -0.44444444       0.11111111 </v>
   <v>      -0.11111111      -0.44444444       0.44444444 </v>
   <v>      -0.44444444      -0.11111111       0.44444444 </v>
   <v>       0.44444444      -0.44444444       0.11111111 </v>
   <v>       0.44444444      -0.11111111       0.44444444 </v>
   <v>       0.11111111      -0.44444444       0.44444444 </v>
   <v>       0.22222222       0.22222222       0.22222222 </v>
   <v>      -0.22222222       0.22222222       0.22222222 </v>
   <v>      -0.22222222      -0.22222222       0.22222222 </v>
   <v>       0.22222222      -0.22222222       0.22222222 </v>
   <v>       0.33333333       0.22222222       0.22222222 </v>
   <v>       0.22222222       0.33333333       0.22222222 </v>
   <v>       0.22222222       0.22222222       0.33333333 </v>
   <v>      -0.22222222       0.33333333       0.22222222 </v>
   <v>      -0.33333333       0.22222222       0.22222222 </v>
   <v>      -0.22222222       0.22222222       0.33333333 </v>
   <v>      -0.33333333      -0.22222222       0.22222222 </v>
   <v>      -0.22222222      -0.33333333       0.22222222 </v>
   <v>      -0.22222222      -0.22222222       0.33333333 </v>
   <v>       0.22222222      -0.33333333       0.22222222 </v>
   <v>       0.33333333      -0.22222222       0.22222222 </v>
   <v>       0.22222222      -0.22222222       0.33333333 </v>
   <v>       0.44444444       0.22222222       0.22222222 </v>
   <v>       0.22222222       0.44444444       0.22222222 </v>
   <v>       0.22222222       0.22222222       0.44444444 </v>
   <v>      -0.22222222       0.44444444       0.22222222 </v>
   <v>      -0.44444444       0.22222222       0.22222222 </v>
   <v>      -0.22222222       0.22222222       0.44444444 </v>
   <v>      -0.44444444      -0.22222222       0.22222222 </v>
   <v>      -0.22222222      -0.44444444       0.22222222 </v>
   <v>      -0.22222222      -0.22222222       0.44444444 </v>
   <v>       0.22222222      -0.44444444       0.22222222 </v>
   <v>       0.44444444      -0.22222222       0.22222222 </v>
   <v>       0.22222222      -0.22222222       0.44444444 </v>
   <v>       0.33333333       0.33333333       0.22222222 </v>
   <v>       0.22222222       0.33333333       0.33333333 </v>
   <v>       0.33333333       0.22222222       0.33333333 </v>
   <v>      -0.33333333       0.33333333       0.22222222 </v>
   <v>      -0.33333333       0.22222222       0.33333333 </v>
   <v>      -0.22222222       0.33333333       0.33333333 </v>
   <v>      -0.33333333      -0.33333333       0.22222222 </v>
   <v>      -0.22222222      -0.33333333       0.33333333 </v>
   <v>      -0.33333333      -0.22222222       0.33333333 </v>
   <v>       0.33333333      -0.33333333       0.22222222 </v>
   <v>       0.33333333      -0.22222222       0.33333333 </v>
   <v>       0.22222222      -0.33333333       0.33333333 </v>
   <v>       0.44444444       0.33333333       0.22222222 </v>
   <v>       0.22222222       0.44444444       0.33333333 </v>
   <v>       0.33333333       0.22222222       0.44444444 </v>
   <v>      -0.33333333       0.44444444       0.22222222 </v>
   <v>      -0.44444444       0.22222222       0.33333333 </v>
   <v>      -0.22222222       0.33333333       0.44444444 </v>
   <v>      -0.44444444      -0.33333333       0.22222222 </v>
   <v>      -0.22222222      -0.44444444       0.33333333 </v>
   <v>      -0.33333333      -0.22222222       0.44444444 </v>
   <v>       0.33333333      -0.44444444       0.22222222 </v>
   <v>       0.44444444      -0.22222222       0.33333333 </v>
   <v>       0.22222222      -0.33333333       0.44444444 </v>
   <v>       0.22222222      -0.44444444      -0.33333333 </v>
   <v>       0.33333333      -0.22222222      -0.44444444 </v>
   <v>       0.44444444      -0.33333333      -0.22222222 </v>
   <v>       0.22222222       0.33333333      -0.44444444 </v>
   <v>       0.33333333       0.44444444      -0.22222222 </v>
   <v>       0.44444444       0.22222222      -0.33333333 </v>
   <v>      -0.33333333       0.22222222      -0.44444444 </v>
   <v>      -0.44444444       0.33333333      -0.22222222 </v>
   <v>      -0.22222222       0.44444444      -0.33333333 </v>
   <v>      -0.44444444      -0.22222222      -0.33333333 </v>
   <v>      -0.33333333      -0.44444444      -0.22222222 </v>
   <v>      -0.22222222      -0.33333333      -0.44444444 </v>
   <v>       0.44444444       0.44444444       0.22222222 </v>
   <v>       0.22222222       0.44444444       0.44444444 </v>
   <v>       0.44444444       0.22222222       0.44444444 </v>
   <v>      -0.44444444       0.44444444       0.22222222 </v>
   <v>      -0.44444444       0.22222222       0.44444444 </v>
   <v>      -0.22222222       0.44444444       0.44444444 </v>
   <v>      -0.44444444      -0.44444444       0.22222222 </v>
   <v>      -0.22222222      -0.44444444       0.44444444 </v>
   <v>      -0.44444444      -0.22222222       0.44444444 </v>
   <v>       0.44444444      -0.44444444       0.22222222 </v>
   <v>       0.44444444      -0.22222222       0.44444444 </v>
   <v>       0.22222222      -0.44444444       0.44444444 </v>
   <v>       0.33333333       0.33333333       0.33333333 </v>
   <v>      -0.33333333       0.33333333       0.33333333 </v>
   <v>      -0.33333333      -0.33333333       0.33333333 </v>
   <v>       0.33333333      -0.33333333       0.33333333 </v>
   <v>       0.44444444       0.33333333       0.33333333 </v>
   <v>       0.33333333       0.44444444       0.33333333 </v>
   <v>       0.33333333       0.33333333       0.44444444 </v>
   <v>      -0.33333333       0.44444444       0.33333333 </v>
   <v>      -0.44444444       0.33333333       0.33333333 </v>
   <v>      -0.33333333       0.33333333       0.44444444 </v>
   <v>      -0.44444444      -0.33333333       0.33333333 </v>
   <v>      -0.33333333      -0.44444444       0.33333333 </v>
   <v>      -0.33333333      -0.33333333       0.44444444 </v>
   <v>       0.33333333      -0.44444444       0.33333333 </v>
   <v>       0.44444444      -0.33333333       0.33333333 </v>
   <v>       0.33333333      -0.33333333       0.44444444 </v>
   <v>       0.44444444       0.44444444       0.33333333 </v>
   <v>       0.33333333       0.44444444       0.44444444 </v>
   <v>       0.44444444       0.33333333       0.44444444 </v>
   <v>      -0.44444444       0.44444444       0.33333333 </v>
   <v>      -0.44444444       0.33333333       0.44444444 </v>
   <v>      -0.33333333       0.44444444       0.44444444 </v>
   <v>      -0.44444444      -0.44444444       0.33333333 </v>
   <v>      -0.33333333      -0.44444444       0.44444444 </v>
   <v>      -0.44444444      -0.33333333       0.44444444 </v>
   <v>       0.44444444      -0.44444444       0.33333333 </v>
   <v>       0.44444444      -0.33333333       0.44444444 </v>
   <v>       0.33333333      -0.44444444       0.44444444 </v>
   <v>       0.44444444       0.44444444       0.44444444 </v>
   <v>      -0.44444444       0.44444444       0.44444444 </v>
   <v>      -0.44444444      -0.44444444       0.44444444 </v>
   <v>       0.44444444      -0.44444444       0.44444444 </v>
  </varray>
  <varray name="weights" >
   <v>       0.00137174 </v>
   <v>       0.00274348 </v>
   <v>       0.00274348 </v>
   <v>       0.00274348 </v>
   <v>       0.00274348 </v>
   <v>       0.00274348 </v>
   <v>       0.00274348 </v>
   <v>       0.00274348 </v>
   <v>       0.00274348 </v>
   <v>       0.00274348 </v>
   <v>       0.00274348 </v>
   <v>       0.00274348 </v>
   <v>       0.00274348 </v>
   <v>       0.00274348 </v>
   <v>       0.00274348 </v>
   <v>       0.00274348 </v>
   <v>       0.00274348 </v>
   <v>       0.00274348 </v>
   <v>       0.00274348 </v>
   <v>       0.00274348 </v>
   <v>       0.00274348 </v>
   <v>       0.00274348 </v>
   <v>       0.00274348 </v>
   <v>       0.00274348 </v>
   <v>       0.00274348 </v>
   <v>       0.00274348 </v>
   <v>       0.00274348 </v>
   <v>       0.00274348 </v>
   <v>       0.00274348 </v>
   <v>       0.00274348 </v>
   <v>       0.00274348 </v>
   <v>       0.00274348 </v>
   <v>       0.00274348 </v>
   <v>       0.00274348 </v>
   <v>       0.00274348 </v>
   <v>       0.00274348 </v>
   <v>       0.00274348 </v>
   <v>       0.00274348 </v>
   <v>       0.00274348 </v>
   <v>       0.00274348 </v>
   <v>       0.00274348 </v>
   <v>       0.00274348 </v>
   <v>       0.00274348 </v>
   <v>       0.00274348 </v>
   <v>       0.00274348 </v>
   <v>       0.00274348 </v>
   <v>       0.00274348 </v>
   <v>       0.00274348 </v>
   <v>       0.00274348 </v>
   <v>       0.00274348 </v>
   <v>       0.00274348 </v>
   <v>       0.00274348 </v>
   <v>       0.00274348 </v>
   <v>       0.00274348 </v>
   <v>       0.00274348 </v>
   <v>       0.00274348 </v>
   <v>       0.00274348 </v>
   <v>       0.00274348 </v>
   <v>       0.00274348 </v>
   <v>       0.00274348 </v>
   <v>       0.00274348 </v>
   <v>       0.00274348 </v>
   <v>       0.00274348 </v>
   <v>       0.00274348 </v>
   <v>       0.00274348 </v>
   <v>       0.00274348 </v>
   <v>       0.00274348 </v>
   <v>       0.00274348 </v>
   <v>       0.00274348 </v>
   <v>       0.00274348 </v>
   <v>       0.00274348 </v>
   <v>       0.00274348 </v>
   <v>       0.00274348 </v>
   <v>       0.00274348 </v>
   <v>       0.00274348 </v>
   <v>       0.00274348 </v>
   <v>       0.00274348 </v>
   <v>       0.00274348 </v>
   <v>       0.00274348 </v>
   <v>       0.00274348 </v>
   <v>       0.00274348 </v>
   <v>       0.00274348 </v>
   <v>       0.00274348 </v>
   <v>       0.00274348 </v>
   <v>       0.00274348 </v>
   <v>       0.00274348 </v>
   <v>       0.00274348 </v>
   <v>       0.00274348 </v>
   <v>       0.00274348 </v>
   <v>       0.00274348 </v>
   <v>       0.00274348 </v>
   <v>       0.00274348 </v>
   <v>       0.00274348 </v>
   <v>       0.00274348 </v>
   <v>       0.00274348 </v>
   <v>       0.00274348 </v>
   <v>       0.00274348 </v>
   <v>       0.00274348 </v>
   <v>       0.00274348 </v>
   <v>       0.00274348 </v>
   <v>       0.00274348 </v>
   <v>       0.00274348 </v>
   <v>       0.00274348 </v>
   <v>       0.00274348 </v>
   <v>       0.00274348 </v>
   <v>       0.00274348 </v>
   <v>       0.00274348 </v>
   <v>       0.00274348 </v>
   <v>       0.00274348 </v>
   <v>       0.00274348 </v>
   <v>       0.00274348 </v>
   <v>       0.00274348 </v>
   <v>       0.00274348 </v>
   <v>       0.00274348 </v>
   <v>       0.00274348 </v>
   <v>       0.00274348 </v>
   <v>       0.00274348 </v>
   <v>       0.00274348 </v>
   <v>       0.00274348 </v>
   <v>       0.00274348 </v>
   <v>       0.00274348 </v>
   <v>       0.00274348 </v>
   <v>       0.00274348 </v>
   <v>       0.00274348 </v>
   <v>       0.00274348 </v>
   <v>       0.00274348 </v>
   <v>       0.00274348 </v>
   <v>       0.00274348 </v>
   <v>       0.00274348 </v>
   <v>       0.00274348 </v>
   <v>       0.00274348 </v>
   <v>       0.00274348 </v>
   <v>       0.00274348 </v>
   <v>       0.00274348 </v>
   <v>       0.00274348 </v>
   <v>       0.00274348 </v>
   <v>       0.00274348 </v>
   <v>       0.00274348 </v>
   <v>       0.00274348 </v>
   <v>       0.00274348 </v>
   <v>       0.00274348 </v>
   <v>       0.00274348 </v>
   <v>       0.00274348 </v>
   <v>       0.00274348 </v>
   <v>       0.00274348 </v>
   <v>       0.00274348 </v>
   <v>       0.00274348 </v>
   <v>       0.00274348 </v>
   <v>       0.00274348 </v>
   <v>       0.00274348 </v>
   <v>       0.00274348 </v>
   <v>       0.00274348 </v>
   <v>       0.00274348 </v>
   <v>       0.00274348 </v>
   <v>       0.00274348 </v>
   <v>       0.00274348 </v>
   <v>       0.00274348 </v>
   <v>       0.00274348 </v>
   <v>       0.00274348 </v>
   <v>       0.00274348 </v>
   <v>       0.00274348 </v>
   <v>       0.00274348 </v>
   <v>       0.00274348 </v>
   <v>       0.00274348 </v>
   <v>       0.00274348 </v>
   <v>       0.00274348 </v>
   <v>       0.00274348 </v>
   <v>       0.00274348 </v>
   <v>       0.00274348 </v>
   <v>       0.00274348 </v>
   <v>       0.00274348 </v>
   <v>       0.00274348 </v>
   <v>       0.00274348 </v>
   <v>       0.00274348 </v>
   <v>       0.00274348 </v>
   <v>       0.00274348 </v>
   <v>       0.00274348 </v>
   <v>       0.00274348 </v>
   <v>       0.00274348 </v>
   <v>       0.00274348 </v>
   <v>       0.00274348 </v>
   <v>       0.00274348 </v>
   <v>       0.00274348 </v>
   <v>       0.00274348 </v>
   <v>       0.00274348 </v>
   <v>       0.00274348 </v>
   <v>       0.00274348 </v>
   <v>       0.00274348 </v>
   <v>       0.00274348 </v>
   <v>       0.00274348 </v>
   <v>       0.00274348 </v>
   <v>       0.00274348 </v>
   <v>       0.00274348 </v>
   <v>       0.00274348 </v>
   <v>       0.00274348 </v>
   <v>       0.00274348 </v>
   <v>       0.00274348 </v>
   <v>       0.00274348 </v>
   <v>       0.00274348 </v>
   <v>       0.00274348 </v>
   <v>       0.00274348 </v>
   <v>       0.00274348 </v>
   <v>       0.00274348 </v>
   <v>       0.00274348 </v>
   <v>       0.00274348 </v>
   <v>       0.00274348 </v>
   <v>       0.00274348 </v>
   <v>       0.00274348 </v>
   <v>       0.00274348 </v>
   <v>       0.00274348 </v>
   <v>       0.00274348 </v>
   <v>       0.00274348 </v>
   <v>       0.00274348 </v>
   <v>       0.00274348 </v>
   <v>       0.00274348 </v>
   <v>       0.00274348 </v>
   <v>       0.00274348 </v>
   <v>       0.00274348 </v>
   <v>       0.00274348 </v>
   <v>       0.00274348 </v>
   <v>       0.00274348 </v>
   <v>       0.00274348 </v>
   <v>       0.00274348 </v>
   <v>       0.00274348 </v>
   <v>       0.00274348 </v>
   <v>       0.00274348 </v>
   <v>       0.00274348 </v>
   <v>       0.00274348 </v>
   <v>       0.00274348 </v>
   <v>       0.00274348 </v>
   <v>       0.00274348 </v>
   <v>       0.00274348 </v>
   <v>       0.00274348 </v>
   <v>       0.00274348 </v>
   <v>       0.00274348 </v>
   <v>       0.00274348 </v>
   <v>       0.00274348 </v>
   <v>       0.00274348 </v>
   <v>       0.00274348 </v>
   <v>       0.00274348 </v>
   <v>       0.00274348 </v>
   <v>       0.00274348 </v>
   <v>       0.00274348 </v>
   <v>       0.00274348 </v>
   <v>       0.00274348 </v>
   <v>       0.00274348 </v>
   <v>       0.00274348 </v>
   <v>       0.00274348 </v>
   <v>       0.00274348 </v>
   <v>       0.00274348 </v>
   <v>       0.00274348 </v>
   <v>       0.00274348 </v>
   <v>       0.00274348 </v>
   <v>       0.00274348 </v>
   <v>       0.00274348 </v>
   <v>       0.00274348 </v>
   <v>       0.00274348 </v>
   <v>       0.00274348 </v>
   <v>       0.00274348 </v>
   <v>       0.00274348 </v>
   <v>       0.00274348 </v>
   <v>       0.00274348 </v>
   <v>       0.00274348 </v>
   <v>       0.00274348 </v>
   <v>       0.00274348 </v>
   <v>       0.00274348 </v>
   <v>       0.00274348 </v>
   <v>       0.00274348 </v>
   <v>       0.00274348 </v>
   <v>       0.00274348 </v>
   <v>       0.00274348 </v>
   <v>       0.00274348 </v>
   <v>       0.00274348 </v>
   <v>       0.00274348 </v>
   <v>       0.00274348 </v>
   <v>       0.00274348 </v>
   <v>       0.00274348 </v>
   <v>       0.00274348 </v>
   <v>       0.00274348 </v>
   <v>       0.00274348 </v>
   <v>       0.00274348 </v>
   <v>       0.00274348 </v>
   <v>       0.00274348 </v>
   <v>       0.00274348 </v>
   <v>       0.00274348 </v>
   <v>       0.00274348 </v>
   <v>       0.00274348 </v>
   <v>       0.00274348 </v>
   <v>       0.00274348 </v>
   <v>       0.00274348 </v>
   <v>       0.00274348 </v>
   <v>       0.00274348 </v>
   <v>       0.00274348 </v>
   <v>       0.00274348 </v>
   <v>       0.00274348 </v>
   <v>       0.00274348 </v>
   <v>       0.00274348 </v>
   <v>       0.00274348 </v>
   <v>       0.00274348 </v>
   <v>       0.00274348 </v>
   <v>       0.00274348 </v>
   <v>       0.00274348 </v>
   <v>       0.00274348 </v>
   <v>       0.00274348 </v>
   <v>       0.00274348 </v>
   <v>       0.00274348 </v>
   <v>       0.00274348 </v>
   <v>       0.00274348 </v>
   <v>       0.00274348 </v>
   <v>       0.00274348 </v>
   <v>       0.00274348 </v>
   <v>       0.00274348 </v>
   <v>       0.00274348 </v>
   <v>       0.00274348 </v>
   <v>       0.00274348 </v>
   <v>       0.00274348 </v>
   <v>       0.00274348 </v>
   <v>       0.00274348 </v>
   <v>       0.00274348 </v>
   <v>       0.00274348 </v>
   <v>       0.00274348 </v>
   <v>       0.00274348 </v>
   <v>       0.00274348 </v>
   <v>       0.00274348 </v>
   <v>       0.00274348 </v>
   <v>       0.00274348 </v>
   <v>       0.00274348 </v>
   <v>       0.00274348 </v>
   <v>       0.00274348 </v>
   <v>       0.00274348 </v>
   <v>       0.00274348 </v>
   <v>       0.00274348 </v>
   <v>       0.00274348 </v>
   <v>       0.00274348 </v>
   <v>       0.00274348 </v>
   <v>       0.00274348 </v>
   <v>       0.00274348 </v>
   <v>       0.00274348 </v>
   <v>       0.00274348 </v>
   <v>       0.00274348 </v>
   <v>       0.00274348 </v>
   <v>       0.00274348 </v>
   <v>       0.00274348 </v>
   <v>       0.00274348 </v>
   <v>       0.00274348 </v>
   <v>       0.00274348 </v>
   <v>       0.00274348 </v>
   <v>       0.00274348 </v>
   <v>       0.00274348 </v>
   <v>       0.00274348 </v>
   <v>       0.00274348 </v>
   <v>       0.00274348 </v>
   <v>       0.00274348 </v>
   <v>       0.00274348 </v>
   <v>       0.00274348 </v>
   <v>       0.00274348 </v>
   <v>       0.00274348 </v>
   <v>       0.00274348 </v>
   <v>       0.00274348 </v>
   <v>       0.00274348 </v>
   <v>       0.00274348 </v>
   <v>       0.00274348 </v>
   <v>       0.00274348 </v>
   <v>       0.00274348 </v>
   <v>       0.00274348 </v>
  </varray>
 </kpoints>
 <parameters>
  <separator name="general" >
   <i type="string" name="SYSTEM">al</i>
   <i type="logical" name="LCOMPAT"> F  </i>
  </separator>
  <separator name="electronic" >
   <i type="string" name="PREC">accura</i>
   <i name="ENMAX">    600.00000000</i>
   <i name="ENAUG">    291.05200000</i>
   <i name="EDIFF">      0.00000100</i>
   <i type="int" name="IALGO">    38</i>
   <i type="int" name="IWAVPR">    10</i>
   <i type="int" name="NBANDS">    72</i>
   <i type="int" name="NBANDSLOW">    -1</i>
   <i type="int" name="NBANDSHIGH">    -1</i>
   <i name="NELECT">     96.00000000</i>
   <i type="int" name="TURBO">     0</i>
   <i type="int" name="IRESTART">     0</i>
   <i type="int" name="NREBOOT">     0</i>
   <i type="int" name="NMIN">     0</i>
   <i name="EREF">      0.00000000</i>
   <separator name="electronic smearing" >
    <i type="int" name="ISMEAR">     0</i>
    <i name="SIGMA">      0.05000000</i>
    <i name="KSPACING">      0.50000000</i>
    <i type="logical" name="KGAMMA"> T  </i>
    <i type="logical" name="KBLOWUP"> T  </i>
   </separator>
   <separator name="electronic projectors" >
    <i type="logical" name="LREAL"> T  </i>
    <v name="ROPT">     -0.00025000</v>
    <i type="int" name="LMAXPAW">    -1</i>
    <i type="int" name="LMAXMIX">     2</i>
    <i type="logical" name="NLSPLINE"> F  </i>
   </separator>
   <separator name="electronic startup" >
    <i type="int" name="ISTART">     0</i>
    <i type="int" name="ICHARG">     2</i>
    <i type="int" name="INIWAV">     1</i>
   </separator>
   <separator name="electronic spin" >
    <i type="int" name="ISPIN">     1</i>
    <i type="logical" name="LNONCOLLINEAR"> F  </i>
    <v name="MAGMOM">      1.00000000      1.00000000      1.00000000      1.00000000      1.00000000      1.00000000      1.00000000      1.00000000      1.00000000      1.00000000      1.00000000      1.00000000      1.00000000      1.00000000      1.00000000      1.00000000      1.00000000      1.00000000      1.00000000      1.00000000
      1.00000000      1.00000000      1.00000000      1.00000000      1.00000000      1.00000000      1.00000000      1.00000000      1.00000000      1.00000000      1.00000000      1.00000000</v>
    <i name="NUPDOWN">     -1.00000000</i>
    <i type="logical" name="LSORBIT"> F  </i>
    <v name="SAXIS">      0.00000000      0.00000000      1.00000000</v>
    <i type="logical" name="LSPIRAL"> F  </i>
    <v name="QSPIRAL">      0.00000000      0.00000000      0.00000000</v>
    <i type="logical" name="LZEROZ"> F  </i>
   </separator>
   <separator name="electronic exchange-correlation" >
    <i type="logical" name="LASPH"> F  </i>
    <i type="logical" name="LMETAGGA"> F  </i>
   </separator>
   <separator name="electronic convergence" >
    <i type="int" name="NELM">   200</i>
    <i type="int" name="NELMDL">    -5</i>
    <i type="int" name="NELMIN">     2</i>
    <i name="ENINI">    600.00000000</i>
    <separator name="electronic convergence detail" >
     <i type="logical" name="LDIAG"> T  </i>
     <i type="logical" name="LSUBROT"> F  </i>
     <i name="WEIMIN">      0.00000000</i>
     <i name="EBREAK">      0.00000000</i>
     <i name="DEPER">      0.30000000</i>
     <i type="int" name="NRMM">     4</i>
     <i name="TIME">      0.40000000</i>
    </separator>
   </separator>
   <separator name="electronic mixer" >
    <i name="AMIX">      0.40000000</i>
    <i name="BMIX">      1.00000000</i>
    <i name="AMIN">      0.10000000</i>
    <i name="AMIX_MAG">      1.60000000</i>
    <i name="BMIX_MAG">      1.00000000</i>
    <separator name="electronic mixer details" >
     <i type="int" name="IMIX">     4</i>
     <i type="logical" name="MIXFIRST"> F  </i>
     <i type="int" name="MAXMIX">   -45</i>
     <i name="WC">    100.00000000</i>
     <i type="int" name="INIMIX">     1</i>
     <i type="int" name="MIXPRE">     1</i>
     <i type="int" name="MREMOVE">     5</i>
    </separator>
   </separator>
   <separator name="electronic dipolcorrection" >
    <i type="logical" name="LDIPOL"> F  </i>
    <i type="logical" name="LMONO"> F  </i>
    <i type="int" name="IDIPOL">     0</i>
    <i name="EPSILON">      1.00000000</i>
    <v name="DIPOL">   -100.00000000   -100.00000000   -100.00000000</v>
    <i name="EFIELD">      0.00000000</i>
   </separator>
  </separator>
  <separator name="grids" >
   <i type="int" name="NGX">    70</i>
   <i type="int" name="NGY">    70</i>
   <i type="int" name="NGZ">    70</i>
   <i type="int" name="NGXF">   140</i>
   <i type="int" name="NGYF">   140</i>
   <i type="int" name="NGZF">   140</i>
   <i type="logical" name="ADDGRID"> F  </i>
  </separator>
  <separator name="ionic" >
   <i type="int" name="NSW">     0</i>
   <i type="int" name="IBRION">    -1</i>
   <i type="int" name="MDALGO">     0</i>
   <i type="int" name="ISIF">     2</i>
   <i name="PSTRESS">      0.00000000</i>
   <i name="EDIFFG">      0.00001000</i>
   <i type="int" name="NFREE">     0</i>
   <i name="POTIM">      0.50000000</i>
   <i name="SMASS">     -3.00000000</i>
   <i name="SCALEE">      1.00000000</i>
  </separator>
  <separator name="ionic md" >
   <i name="TEBEG">      0.00010000</i>
   <i name="TEEND">      0.00010000</i>
   <i type="int" name="NBLOCK">     1</i>
   <i type="int" name="KBLOCK">     1</i>
   <i type="int" name="NPACO">   256</i>
   <i name="APACO">     16.00000000</i>
  </separator>
  <separator name="symmetry" >
   <i type="int" name="ISYM">     2</i>
   <i name="SYMPREC">      0.00001000</i>
  </separator>
  <separator name="dos" >
   <i type="int" name="LORBIT">     0</i>
   <v name="RWIGS">     -1.00000000</v>
   <i type="int" name="NEDOS">   301</i>
   <i name="EMIN">     10.00000000</i>
   <i name="EMAX">    -10.00000000</i>
   <i name="EFERMI">      0.00000000</i>
  </separator>
  <separator name="writing" >
   <i type="int" name="NWRITE">     2</i>
   <i type="logical" name="LWAVE"> F  </i>
   <i type="logical" name="LDOWNSAMPLE"> F  </i>
   <i type="logical" name="LCHARG"> T  </i>
   <i type="logical" name="LPARD"> F  </i>
   <i type="logical" name="LVTOT"> F  </i>
   <i type="logical" name="LVHAR"> F  </i>
   <i type="logical" name="LELF"> F  </i>
   <i type="logical" name="LOPTICS"> F  </i>
   <v name="STM">      0.00000000      0.00000000      0.00000000      0.00000000      0.00000000      0.00000000      0.00000000</v>
  </separator>
  <separator name="performance" >
   <i type="int" name="NPAR">     8</i>
   <i type="int" name="NSIM">     8</i>
   <i type="int" name="NBLK">    -1</i>
   <i type="logical" name="LPLANE"> T  </i>
   <i type="logical" name="LSCALAPACK"> T  </i>
   <i type="logical" name="LSCAAWARE"> F  </i>
   <i type="logical" name="LSCALU"> F  </i>
   <i type="logical" name="LASYNC"> F  </i>
   <i type="logical" name="LORBITALREAL"> F  </i>
  </separator>
  <separator name="miscellaneous" >
   <i type="int" name="IDIOT">     3</i>
   <i type="int" name="PHON_NSTRUCT">    -1</i>
   <i type="logical" name="LMUSIC"> F  </i>
   <v name="POMASS">     26.98100000</v>
   <v name="DARWINR">      0.00000000</v>
   <v name="DARWINV">      1.00000000</v>
   <i type="logical" name="LCORR"> T  </i>
  </separator>
  <i type="logical" name="GGA_COMPAT"> T  </i>
  <i type="logical" name="LBERRY"> F  </i>
  <i type="int" name="ICORELEVEL">     0</i>
  <i type="logical" name="LDAU"> F  </i>
  <i type="int" name="I_CONSTRAINED_M">     0</i>
  <separator name="electronic exchange-correlation" >
   <i type="string" name="GGA">PE</i>
   <i type="int" name="VOSKOWN">     0</i>
   <i type="logical" name="LHFCALC"> F  </i>
   <i type="string" name="PRECFOCK"></i>
   <i type="logical" name="LSYMGRAD"> F  </i>
   <i type="logical" name="LHFONE"> F  </i>
   <i type="logical" name="LRHFCALC"> F  </i>
   <i type="logical" name="LTHOMAS"> F  </i>
   <i type="logical" name="LMODELHF"> F  </i>
   <i type="logical" name="LFOCKACE"> F  </i>
   <i name="ENCUT4O">     -1.00000000</i>
   <i type="int" name="EXXOEP">     0</i>
   <i type="int" name="FOURORBIT">     0</i>
   <i name="AEXX">      0.00000000</i>
   <i name="HFALPHA">      0.00000000</i>
   <i name="MCALPHA">      0.00000000</i>
   <i name="ALDAX">      1.00000000</i>
   <i name="AGGAX">      1.00000000</i>
   <i name="ALDAC">      1.00000000</i>
   <i name="AGGAC">      1.00000000</i>
   <i type="int" name="NKREDX">     1</i>
   <i type="int" name="NKREDY">     1</i>
   <i type="int" name="NKREDZ">     1</i>
   <i type="logical" name="SHIFTRED"> F  </i>
   <i type="logical" name="ODDONLY"> F  </i>
   <i type="logical" name="EVENONLY"> F  </i>
   <i type="int" name="LMAXFOCK">     0</i>
   <i type="int" name="NMAXFOCKAE">     0</i>
   <i type="logical" name="LFOCKAEDFT"> F  </i>
   <i name="HFSCREEN">      0.00000000</i>
   <i name="HFSCREENC">      0.00000000</i>
   <i type="int" name="NBANDSGWLOW">     0</i>
  </separator>
  <separator name="vdW DFT" >
   <i type="logical" name="LUSE_VDW"> F  </i>
   <i name="Zab_VDW">     -0.84910000</i>
   <i name="PARAM1">      0.12340000</i>
   <i name="PARAM2">      1.00000000</i>
   <i name="PARAM3">      0.00000000</i>
  </separator>
  <separator name="model GW" >
   <i type="int" name="MODEL_GW">     0</i>
   <i name="MODEL_EPS0">      9.88389577</i>
   <i name="MODEL_ALPHA">      1.00000000</i>
  </separator>
  <separator name="linear response parameters" >
   <i type="logical" name="LEPSILON"> F  </i>
   <i type="logical" name="LRPA"> F  </i>
   <i type="logical" name="LNABLA"> F  </i>
   <i type="logical" name="LVEL"> F  </i>
   <i type="int" name="KINTER">     0</i>
   <i name="CSHIFT">      0.10000000</i>
   <i name="OMEGAMAX">     -1.00000000</i>
   <i name="DEG_THRESHOLD">      0.00200000</i>
   <i name="RTIME">     -0.10000000</i>
   <i name="WPLASMAI">      0.00000000</i>
   <v name="DFIELD">      0.00000000      0.00000000      0.00000000</v>
   <v name="WPLASMA">      0.00000000      0.00000000      0.00000000      0.00000000      0.00000000      0.00000000      0.00000000      0.00000000      0.00000000</v>
  </separator>
  <separator name="orbital magnetization" >
   <i type="logical" name="NUCIND"> F  </i>
   <v name="MAGPOS">      0.00000000      0.00000000      0.00000000</v>
   <i type="logical" name="LNICSALL"> T  </i>
   <i type="logical" name="ORBITALMAG"> F  </i>
   <i type="logical" name="LMAGBLOCH"> F  </i>
   <i type="logical" name="LCHIMAG"> F  </i>
   <i type="logical" name="LGAUGE"> T  </i>
   <i type="int" name="MAGATOM">     0</i>
   <v name="MAGDIPOL">      0.00000000      0.00000000      0.00000000</v>
   <v name="AVECCONST">      0.00000000      0.00000000      0.00000000</v>
  </separator>
  <separator name="response functions" >
   <i type="logical" name="LFINITE_TEMPERATURE"> F  </i>
   <i type="logical" name="LADDER"> F  </i>
   <i type="logical" name="LRPAFORCE"> F  </i>
   <i type="logical" name="LFXC"> F  </i>
   <i type="logical" name="LHARTREE"> T  </i>
   <i type="int" name="IBSE">     0</i>
   <v type="int" name="KPOINT">    -1     0     0     0</v>
   <i type="logical" name="LTCTC"> F  </i>
   <i type="logical" name="LTCTE"> F  </i>
   <i type="logical" name="LTETE"> F  </i>
   <i type="logical" name="LTRIPLET"> F  </i>
   <i type="logical" name="LFXCEPS"> F  </i>
   <i type="logical" name="LFXHEG"> F  </i>
   <i type="int" name="NATURALO">     2</i>
   <i type="logical" name="LHOLEGF"> F  </i>
   <i type="logical" name="L2ORDER"> F  </i>
   <i type="logical" name="LDMP1"> F  </i>
   <i type="logical" name="LMP2LT"> F  </i>
   <i type="logical" name="LSMP2LT"> F  </i>
   <i type="logical" name="LGWLF"> F  </i>
   <i name="ENCUTGW">     -2.00000000</i>
   <i name="ENCUTGWSOFT">     -2.00000000</i>
   <i name="ENCUTLF">     -1.00000000</i>
   <i type="logical" name="LESF_SPLINES"> F  </i>
   <i type="int" name="LMAXMP2">    -1</i>
   <i name="SCISSOR">      0.00000000</i>
   <i type="int" name="NOMEGA">     0</i>
   <i type="int" name="NOMEGAR">     0</i>
   <i type="int" name="NBANDSGW">    -1</i>
   <i type="int" name="NBANDSO">    -1</i>
   <i type="int" name="NBANDSV">    -1</i>
   <i type="int" name="NELM">   200</i>
   <i type="int" name="NELMHF">     1</i>
   <i type="int" name="DIM">     3</i>
   <i type="int" name="IESPILON">     4</i>
   <i type="int" name="ANTIRES">     0</i>
   <i name="OMEGAMAX">    -30.00000000</i>
   <i name="OMEGAMIN">    -30.00000000</i>
   <i name="OMEGATL">   -200.00000000</i>
   <i type="int" name="OMEGAGRID">     0</i>
   <i name="CSHIFT">     -0.10000000</i>
   <i type="logical" name="LSELFENERGY"> F  </i>
   <i type="logical" name="LSPECTRAL"> F  </i>
   <i type="logical" name="LSPECTRALGW"> F  </i>
   <i type="logical" name="LSINGLES"> F  </i>
   <i type="logical" name="LFERMIGW"> F  </i>
   <i type="logical" name="ODDONLYGW"> F  </i>
   <i type="logical" name="EVENONLYGW"> F  </i>
   <i type="int" name="NKREDLFX">     1</i>
   <i type="int" name="NKREDLFY">     1</i>
   <i type="int" name="NKREDLFZ">     1</i>
   <i type="int" name="MAXMEM">  2800</i>
   <i type="int" name="TELESCOPE">     0</i>
   <i type="int" name="NTAUPAR">    -1</i>
   <i type="int" name="NOMEGAPAR">    -1</i>
   <i name="DAMP_NEWTON">      0.80000001</i>
   <i name="LAMBDA">      1.00000000</i>
  </separator>
  <separator name="External order field" >
   <i name="OFIELD_KAPPA">      0.00000000</i>
   <v name="OFIELD_K">      0.00000000      0.00000000      0.00000000</v>
   <i name="OFIELD_Q6_NEAR">      0.00000000</i>
   <i name="OFIELD_Q6_FAR">      0.00000000</i>
   <i name="OFIELD_A">      0.00000000</i>
  </separator>
 </parameters>
 <atominfo>
  <atoms>      32 </atoms>
  <types>       1 </types>
  <array name="atoms" >
   <dimension dim="1">ion</dimension>
   <field type="string">element</field>
   <field type="int">atomtype</field>
   <set>
    <rc><c>Al</c><c>   1</c></rc>
    <rc><c>Al</c><c>   1</c></rc>
    <rc><c>Al</c><c>   1</c></rc>
    <rc><c>Al</c><c>   1</c></rc>
    <rc><c>Al</c><c>   1</c></rc>
    <rc><c>Al</c><c>   1</c></rc>
    <rc><c>Al</c><c>   1</c></rc>
    <rc><c>Al</c><c>   1</c></rc>
    <rc><c>Al</c><c>   1</c></rc>
    <rc><c>Al</c><c>   1</c></rc>
    <rc><c>Al</c><c>   1</c></rc>
    <rc><c>Al</c><c>   1</c></rc>
    <rc><c>Al</c><c>   1</c></rc>
    <rc><c>Al</c><c>   1</c></rc>
    <rc><c>Al</c><c>   1</c></rc>
    <rc><c>Al</c><c>   1</c></rc>
    <rc><c>Al</c><c>   1</c></rc>
    <rc><c>Al</c><c>   1</c></rc>
    <rc><c>Al</c><c>   1</c></rc>
    <rc><c>Al</c><c>   1</c></rc>
    <rc><c>Al</c><c>   1</c></rc>
    <rc><c>Al</c><c>   1</c></rc>
    <rc><c>Al</c><c>   1</c></rc>
    <rc><c>Al</c><c>   1</c></rc>
    <rc><c>Al</c><c>   1</c></rc>
    <rc><c>Al</c><c>   1</c></rc>
    <rc><c>Al</c><c>   1</c></rc>
    <rc><c>Al</c><c>   1</c></rc>
    <rc><c>Al</c><c>   1</c></rc>
    <rc><c>Al</c><c>   1</c></rc>
    <rc><c>Al</c><c>   1</c></rc>
    <rc><c>Al</c><c>   1</c></rc>
   </set>
  </array>
  <array name="atomtypes" >
   <dimension dim="1">type</dimension>
   <field type="int">atomspertype</field>
   <field type="string">element</field>
   <field>mass</field>
   <field>valence</field>
   <field type="string">pseudopotential</field>
   <set>
    <rc><c>  32</c><c>Al</c><c>     26.98100000</c><c>      3.00000000</c><c>  PAW_PBE Al 04Jan2001                  </c></rc>
   </set>
  </array>
 </atominfo>
 <structure name="initialpos" >
  <crystal>
   <varray name="basis" >
    <v>       8.07809510       0.00000000       0.00000000 </v>
    <v>       0.00000000       8.07809510       0.00000000 </v>
    <v>       0.00000000       0.00000000       8.07809510 </v>
   </varray>
   <i name="volume">    527.14110776 </i>
   <varray name="rec_basis" >
    <v>       0.12379156       0.00000000       0.00000000 </v>
    <v>       0.00000000       0.12379156       0.00000000 </v>
    <v>       0.00000000       0.00000000       0.12379156 </v>
   </varray>
  </crystal>
  <varray name="positions" >
   <v>       0.99384595       0.98601367       0.00958546 </v>
   <v>       0.00072549       0.24724413       0.22989544 </v>
   <v>       0.24355010       0.01324047       0.25199451 </v>
   <v>       0.25456616       0.24952038       0.00543749 </v>
   <v>       0.00190456       0.00899175       0.51619988 </v>
   <v>       0.98312276       0.26130134       0.74327341 </v>
   <v>       0.25873089       0.99243900       0.76724240 </v>
   <v>       0.26098073       0.24218643       0.47610064 </v>
   <v>       0.99730244       0.50127198       0.99931376 </v>
   <v>       0.01762948       0.74042701       0.25115919 </v>
   <v>       0.26876802       0.49760105       0.25078496 </v>
   <v>       0.25116481       0.73538710       0.98483135 </v>
   <v>       0.00151797       0.48195700       0.49003455 </v>
   <v>       0.98406771       0.75862420       0.73638244 </v>
   <v>       0.22987364       0.47704447       0.73811768 </v>
   <v>       0.22889005       0.74723939       0.50784408 </v>
   <v>       0.49400191       0.99876644       0.98783432 </v>
   <v>       0.50460188       0.23239502       0.23102943 </v>
   <v>       0.73979111       0.98065184       0.23580345 </v>
   <v>       0.74740344       0.24437955       0.00932269 </v>
   <v>       0.49794384       0.00327665       0.49875626 </v>
   <v>       0.48992358       0.27288020       0.74201878 </v>
   <v>       0.74545048       0.01191972       0.74599035 </v>
   <v>       0.75392109       0.25084234       0.49236745 </v>
   <v>       0.50508121       0.50658534       0.01604028 </v>
   <v>       0.48864934       0.74693656       0.25432090 </v>
   <v>       0.75472307       0.47903218       0.25755563 </v>
   <v>       0.74756654       0.75555751       0.00202242 </v>
   <v>       0.51296492       0.51540315       0.50341236 </v>
   <v>       0.50649540       0.75221129       0.74997222 </v>
   <v>       0.75580917       0.51165244       0.73917991 </v>
   <v>       0.76964834       0.76439250       0.48557828 </v>
  </varray>
 </structure>
 <calculation>
  <scstep>
   <time name="dav">   44.97   45.30</time>
   <time name="total">   45.03   45.36</time>
   <energy>
    <i name="alphaZ">     -6.52466918 </i>
    <i name="ewald">  -2346.58145064 </i>
    <i name="hartreedc">     -5.77792536 </i>
    <i name="XCdc">   -839.46221614 </i>
    <i name="pawpsdc">   2118.40502803 </i>
    <i name="pawaedc">  -1095.85986421 </i>
    <i name="eentropy">     -0.00779486 </i>
    <i name="bandstr">    600.65272405 </i>
    <i name="atom">   1713.23359074 </i>
    <i name="e_fr_energy">    138.07742243 </i>
    <i name="e_wo_entrp">    138.08521729 </i>
    <i name="e_0_energy">    138.08131986 </i>
   </energy>
  </scstep>
  <scstep>
   <time name="dav">   52.93   53.32</time>
   <time name="total">   52.94   53.33</time>
   <energy>
    <i name="e_fr_energy">   -106.33323424 </i>
    <i name="e_wo_entrp">   -106.31817459 </i>
    <i name="e_0_energy">   -106.32570441 </i>
   </energy>
  </scstep>
  <scstep>
   <time name="dav">   56.10   56.50</time>
   <time name="total">   56.11   56.51</time>
   <energy>
    <i name="e_fr_energy">   -119.21152177 </i>
    <i name="e_wo_entrp">   -119.19535457 </i>
    <i name="e_0_energy">   -119.20343817 </i>
   </energy>
  </scstep>
  <scstep>
   <time name="dav">   54.63   55.03</time>
   <time name="total">   54.64   55.04</time>
   <energy>
    <i name="e_fr_energy">   -119.44992297 </i>
    <i name="e_wo_entrp">   -119.43383479 </i>
    <i name="e_0_energy">   -119.44187888 </i>
   </energy>
  </scstep>
  <scstep>
   <time name="dav">   54.32   54.70</time>
   <time name="total">   56.68   57.07</time>
   <energy>
    <i name="e_fr_energy">   -119.45250557 </i>
    <i name="e_wo_entrp">   -119.43642008 </i>
    <i name="e_0_energy">   -119.44446282 </i>
   </energy>
  </scstep>
  <scstep>
   <time name="dav">   59.14   59.54</time>
   <time name="total">   62.20   62.63</time>
   <energy>
    <i name="e_fr_energy">   -118.82951755 </i>
    <i name="e_wo_entrp">   -118.81324416 </i>
    <i name="e_0_energy">   -118.82138085 </i>
   </energy>
  </scstep>
  <scstep>
   <time name="dav">   58.07   58.46</time>
   <time name="total">   61.12   61.54</time>
   <energy>
    <i name="e_fr_energy">   -118.53959977 </i>
    <i name="e_wo_entrp">   -118.52349115 </i>
    <i name="e_0_energy">   -118.53154546 </i>
   </energy>
  </scstep>
  <scstep>
   <time name="dav">   59.03   59.43</time>
   <time name="total">   62.09   62.52</time>
   <energy>
    <i name="e_fr_energy">   -118.51621708 </i>
    <i name="e_wo_entrp">   -118.49997888 </i>
    <i name="e_0_energy">   -118.50809798 </i>
   </energy>
  </scstep>
  <scstep>
   <time name="dav">   57.68   58.07</time>
   <time name="total">   60.72   61.14</time>
   <energy>
    <i name="e_fr_energy">   -118.51434129 </i>
    <i name="e_wo_entrp">   -118.49805534 </i>
    <i name="e_0_energy">   -118.50619832 </i>
   </energy>
  </scstep>
  <scstep>
   <time name="dav">   59.96   60.37</time>
   <time name="total">   63.02   63.45</time>
   <energy>
    <i name="e_fr_energy">   -118.51422651 </i>
    <i name="e_wo_entrp">   -118.49792719 </i>
    <i name="e_0_energy">   -118.50607685 </i>
   </energy>
  </scstep>
  <scstep>
   <time name="dav">   58.54   58.93</time>
   <time name="total">   61.60   62.01</time>
   <energy>
    <i name="e_fr_energy">   -118.51422633 </i>
    <i name="e_wo_entrp">   -118.49792721 </i>
    <i name="e_0_energy">   -118.50607677 </i>
   </energy>
  </scstep>
  <scstep>
   <time name="dav">   41.12   41.40</time>
   <time name="total">   41.20   41.48</time>
   <energy>
    <i name="alphaZ">     -6.52466918 </i>
    <i name="ewald">  -2346.58145064 </i>
    <i name="hartreedc">     -7.12730174 </i>
    <i name="XCdc">   -835.84967713 </i>
    <i name="pawpsdc">   2118.40502803 </i>
    <i name="pawaedc">  -1095.85986421 </i>
    <i name="eentropy">     -0.01629940 </i>
    <i name="bandstr">    341.80641730 </i>
    <i name="atom">   1713.23359074 </i>
    <i name="e_fr_energy">   -118.51422623 </i>
    <i name="e_wo_entrp">   -118.49792683 </i>
    <i name="e_0_energy">   -118.50607653 </i>
   </energy>
  </scstep>
  <structure>
   <crystal>
    <varray name="basis" >
     <v>       8.07809510       0.00000000       0.00000000 </v>
     <v>       0.00000000       8.07809510       0.00000000 </v>
     <v>       0.00000000       0.00000000       8.07809510 </v>
    </varray>
    <i name="volume">    527.14110776 </i>
    <varray name="rec_basis" >
     <v>       0.12379156       0.00000000       0.00000000 </v>
     <v>       0.00000000       0.12379156       0.00000000 </v>
     <v>       0.00000000       0.00000000       0.12379156 </v>
    </varray>
   </crystal>
   <varray name="positions" >
    <v>       0.99384595       0.98601367       0.00958546 </v>
    <v>       0.00072549       0.24724413       0.22989544 </v>
    <v>       0.24355010       0.01324047       0.25199451 </v>
    <v>       0.25456616       0.24952038       0.00543749 </v>
    <v>       0.00190456       0.00899175       0.51619988 </v>
    <v>       0.98312276       0.26130134       0.74327341 </v>
    <v>       0.25873089       0.99243900       0.76724240 </v>
    <v>       0.26098073       0.24218643       0.47610064 </v>
    <v>       0.99730244       0.50127198       0.99931376 </v>
    <v>       0.01762948       0.74042701       0.25115919 </v>
    <v>       0.26876802       0.49760105       0.25078496 </v>
    <v>       0.25116481       0.73538710       0.98483135 </v>
    <v>       0.00151797       0.48195700       0.49003455 </v>
    <v>       0.98406771       0.75862420       0.73638244 </v>
    <v>       0.22987364       0.47704447       0.73811768 </v>
    <v>       0.22889005       0.74723939       0.50784408 </v>
    <v>       0.49400191       0.99876644       0.98783432 </v>
    <v>       0.50460188       0.23239502       0.23102943 </v>
    <v>       0.73979111       0.98065184       0.23580345 </v>
    <v>       0.74740344       0.24437955       0.00932269 </v>
    <v>       0.49794384       0.00327665       0.49875626 </v>
    <v>       0.48992358       0.27288020       0.74201878 </v>
    <v>       0.74545048       0.01191972       0.74599035 </v>
    <v>       0.75392109       0.25084234       0.49236745 </v>
    <v>       0.50508121       0.50658534       0.01604028 </v>
    <v>       0.48864934       0.74693656       0.25432090 </v>
    <v>       0.75472307       0.47903218       0.25755563 </v>
    <v>       0.74756654       0.75555751       0.00202242 </v>
    <v>       0.51296492       0.51540315       0.50341236 </v>
    <v>       0.50649540       0.75221129       0.74997222 </v>
    <v>       0.75580917       0.51165244       0.73917991 </v>
    <v>       0.76964834       0.76439250       0.48557828 </v>
   </varray>
  </structure>
  <varray name="forces" >
   <v>       0.32616742       0.23705631      -0.47214320 </v>
   <v>       0.00157201      -0.10006112       0.51235233 </v>
   <v>       0.04920734      -1.02992345      -0.25167468 </v>
   <v>      -0.26072877       0.09968135      -0.52029927 </v>
   <v>       0.19808546       0.19155577      -0.59239355 </v>
   <v>       0.29141112      -0.59786091       0.50252212 </v>
   <v>      -0.62439707       0.39350986      -0.69482760 </v>
   <v>      -0.17958747       0.43595545       0.72947933 </v>
   <v>      -0.01867216       0.04711658      -0.10011705 </v>
   <v>      -0.29394894       0.07011021      -0.23021767 </v>
   <v>      -0.49969775      -0.11739412       0.12284562 </v>
   <v>      -0.13752112       0.06293678       0.20778237 </v>
   <v>       0.16159346       0.40098431      -0.13891388 </v>
   <v>       0.39240500      -0.20745436       0.73227619 </v>
   <v>       0.41328617       0.71762329       0.19609930 </v>
   <v>       0.76465798       0.03743797       0.00950353 </v>
   <v>       0.26184307      -0.04205953       0.35133998 </v>
   <v>       0.04136684       0.33466656       0.64593574 </v>
   <v>       0.26163208       0.56223228       0.54383560 </v>
   <v>       0.09072536       0.10785367      -0.80665783 </v>
   <v>       0.09288729      -0.21604318       0.07505022 </v>
   <v>       0.38370420      -0.46445432       0.18430710 </v>
   <v>      -0.16603863      -0.04262576       0.14195348 </v>
   <v>      -0.43015488      -0.37213019       0.06162882 </v>
   <v>       0.20806876      -0.24355454      -0.70446836 </v>
   <v>       0.17021771       0.39749028       0.01269860 </v>
   <v>      -0.16295552       0.82222143      -0.36461899 </v>
   <v>      -0.01210397      -0.57695345      -0.21569068 </v>
   <v>      -0.33043542      -0.16195536      -0.16837487 </v>
   <v>      -0.10619143      -0.15962505      -0.18556637 </v>
   <v>      -0.26603190      -0.14786246       0.37627733 </v>
   <v>      -0.62036626      -0.43847428       0.04007634 </v>
  </varray>
  <varray name="stress" >
   <v>      13.57521085       0.66701785       2.25277557 </v>
   <v>       0.66701788      14.31332450       0.39765015 </v>
   <v>       2.25277554       0.39765014      15.72840539 </v>
  </varray>
  <energy>
   <i name="e_fr_energy">   -118.51422623 </i>
   <i name="e_wo_entrp">   -118.49792683 </i>
   <i name="e_0_energy">   -118.50607653 </i>
  </energy>
  <time name="totalsc">  748.22  753.45</time>
  <eigenvalues>
   <array>
    <dimension dim="1">band</dimension>
    <dimension dim="2">kpoint</dimension>
    <dimension dim="3">spin</dimension>
    <field>eigene</field>
    <field>occ</field>
    <set>
     <set comment="spin 1">
      <set comment="kpoint 1">
       <r>   -3.1647    1.0000 </r>
       <r>   -1.1371    1.0000 </r>
       <r>   -1.0260    1.0000 </r>
       <r>   -0.9012    1.0000 </r>
       <r>   -0.8356    1.0000 </r>
       <r>   -0.8226    1.0000 </r>
       <r>   -0.7823    1.0000 </r>
       <r>    1.0195    1.0000 </r>
       <r>    1.0533    1.0000 </r>
       <r>    1.0933    1.0000 </r>
       <r>    1.1243    1.0000 </r>
       <r>    1.2272    1.0000 </r>
       <r>    1.3164    1.0000 </r>
       <r>    1.3317    1.0000 </r>
       <r>    1.3823    1.0000 </r>
       <r>    1.4498    1.0000 </r>
       <r>    1.4875    1.0000 </r>
       <r>    1.5317    1.0000 </r>
       <r>    1.6812    1.0000 </r>
       <r>    3.3049    1.0000 </r>
       <r>    3.3554    1.0000 </r>
       <r>    3.3683    1.0000 </r>
       <r>    3.4090    1.0000 </r>
       <r>    3.5938    1.0000 </r>
       <r>    3.6439    1.0000 </r>
       <r>    3.6589    1.0000 </r>
       <r>    3.7252    1.0000 </r>
       <r>    5.0482    1.0000 </r>
       <r>    5.0817    1.0000 </r>
       <r>    5.0871    1.0000 </r>
       <r>    6.3037    1.0000 </r>
       <r>    6.3470    1.0000 </r>
       <r>    6.3553    1.0000 </r>
       <r>    6.8079    1.0000 </r>
       <r>    6.9034    1.0000 </r>
       <r>    6.9542    1.0000 </r>
       <r>    7.0302    1.0000 </r>
       <r>    7.0840    1.0000 </r>
       <r>    7.1347    1.0000 </r>
       <r>    7.1680    1.0000 </r>
       <r>    7.2120    1.0000 </r>
       <r>    7.2631    1.0000 </r>
       <r>    7.3526    1.0000 </r>
       <r>    7.4305    1.0000 </r>
       <r>    7.4813    1.0000 </r>
       <r>    7.9956    0.6366 </r>
       <r>    8.0148    0.4225 </r>
       <r>    8.1020    0.0039 </r>
       <r>    8.1808    0.0000 </r>
       <r>    8.2607    0.0000 </r>
       <r>    8.3738    0.0000 </r>
       <r>    8.9405    0.0000 </r>
       <r>    8.9869    0.0000 </r>
       <r>    9.0091    0.0000 </r>
       <r>    9.0263    0.0000 </r>
       <r>    9.0322    0.0000 </r>
       <r>    9.0776    0.0000 </r>
       <r>    9.0940    0.0000 </r>
       <r>    9.1056    0.0000 </r>
       <r>    9.1405    0.0000 </r>
       <r>    9.1767    0.0000 </r>
       <r>    9.2273    0.0000 </r>
       <r>    9.2710    0.0000 </r>
       <r>    9.3293    0.0000 </r>
       <r>    9.3574    0.0000 </r>
       <r>    9.3885    0.0000 </r>
       <r>    9.4188    0.0000 </r>
       <r>    9.4802    0.0000 </r>
       <r>    9.5131    0.0000 </r>
       <r>   10.5402    0.0000 </r>
       <r>   10.5758    0.0000 </r>
       <r>   10.6245    0.0000 </r>
      </set>
      <set comment="kpoint 2">
       <r>   -3.1369    1.0000 </r>
       <r>   -1.4132    1.0000 </r>
       <r>   -1.0189    1.0000 </r>
       <r>   -0.9611    1.0000 </r>
       <r>   -0.8109    1.0000 </r>
       <r>   -0.7627    1.0000 </r>
       <r>   -0.3783    1.0000 </r>
       <r>    0.6806    1.0000 </r>
       <r>    0.7516    1.0000 </r>
       <r>    0.8520    1.0000 </r>
       <r>    0.9315    1.0000 </r>
       <r>    1.2063    1.0000 </r>
       <r>    1.3072    1.0000 </r>
       <r>    1.3652    1.0000 </r>
       <r>    1.4688    1.0000 </r>
       <r>    1.7225    1.0000 </r>
       <r>    1.7803    1.0000 </r>
       <r>    1.9512    1.0000 </r>
       <r>    1.9932    1.0000 </r>
       <r>    2.9222    1.0000 </r>
       <r>    3.0017    1.0000 </r>
       <r>    3.0699    1.0000 </r>
       <r>    3.1663    1.0000 </r>
       <r>    3.9073    1.0000 </r>
       <r>    3.9877    1.0000 </r>
       <r>    4.0587    1.0000 </r>
       <r>    4.1551    1.0000 </r>
       <r>    4.5754    1.0000 </r>
       <r>    5.1045    1.0000 </r>
       <r>    5.1090    1.0000 </r>
       <r>    6.3372    1.0000 </r>
       <r>    6.3645    1.0000 </r>
       <r>    6.4487    1.0000 </r>
       <r>    6.5493    1.0000 </r>
       <r>    6.6329    1.0000 </r>
       <r>    6.6645    1.0000 </r>
       <r>    6.8193    1.0000 </r>
       <r>    6.8697    1.0000 </r>
       <r>    6.9412    1.0000 </r>
       <r>    7.0717    1.0000 </r>
       <r>    7.1207    1.0000 </r>
       <r>    7.2502    1.0000 </r>
       <r>    7.3251    1.0000 </r>
       <r>    7.6355    1.0000 </r>
       <r>    7.7046    1.0000 </r>
       <r>    7.9382    0.9757 </r>
       <r>    7.9939    0.6539 </r>
       <r>    8.2948    0.0000 </r>
       <r>    8.3180    0.0000 </r>
       <r>    8.4810    0.0000 </r>
       <r>    8.5158    0.0000 </r>
       <r>    8.6116    0.0000 </r>
       <r>    8.6899    0.0000 </r>
       <r>    8.7312    0.0000 </r>
       <r>    8.7696    0.0000 </r>
       <r>    8.8480    0.0000 </r>
       <r>    8.9396    0.0000 </r>
       <r>    8.9964    0.0000 </r>
       <r>    9.0491    0.0000 </r>
       <r>    9.2604    0.0000 </r>
       <r>    9.2787    0.0000 </r>
       <r>    9.3014    0.0000 </r>
       <r>    9.3372    0.0000 </r>
       <r>    9.3932    0.0000 </r>
       <r>    9.4317    0.0000 </r>
       <r>    9.6552    0.0000 </r>
       <r>    9.6929    0.0000 </r>
       <r>    9.8388    0.0000 </r>
       <r>    9.8864    0.0000 </r>
       <r>   10.1935    0.0000 </r>
       <r>   10.2443    0.0000 </r>
       <r>   10.3570    0.0000 </r>
      </set>
      <set comment="kpoint 3">
       <r>   -3.1369    1.0000 </r>
       <r>   -1.4104    1.0000 </r>
       <r>   -1.0711    1.0000 </r>
       <r>   -0.8773    1.0000 </r>
       <r>   -0.8301    1.0000 </r>
       <r>   -0.7697    1.0000 </r>
       <r>   -0.3896    1.0000 </r>
       <r>    0.6493    1.0000 </r>
       <r>    0.8040    1.0000 </r>
       <r>    0.8403    1.0000 </r>
       <r>    0.9439    1.0000 </r>
       <r>    1.1989    1.0000 </r>
       <r>    1.3028    1.0000 </r>
       <r>    1.3588    1.0000 </r>
       <r>    1.4713    1.0000 </r>
       <r>    1.6625    1.0000 </r>
       <r>    1.8801    1.0000 </r>
       <r>    1.9121    1.0000 </r>
       <r>    1.9849    1.0000 </r>
       <r>    2.9170    1.0000 </r>
       <r>    3.0190    1.0000 </r>
       <r>    3.0573    1.0000 </r>
       <r>    3.1772    1.0000 </r>
       <r>    3.8964    1.0000 </r>
       <r>    4.0021    1.0000 </r>
       <r>    4.0402    1.0000 </r>
       <r>    4.1628    1.0000 </r>
       <r>    4.5947    1.0000 </r>
       <r>    5.0759    1.0000 </r>
       <r>    5.1115    1.0000 </r>
       <r>    6.3201    1.0000 </r>
       <r>    6.3643    1.0000 </r>
       <r>    6.4495    1.0000 </r>
       <r>    6.5546    1.0000 </r>
       <r>    6.6779    1.0000 </r>
       <r>    6.6963    1.0000 </r>
       <r>    6.7981    1.0000 </r>
       <r>    6.8432    1.0000 </r>
       <r>    6.9079    1.0000 </r>
       <r>    7.0632    1.0000 </r>
       <r>    7.1797    1.0000 </r>
       <r>    7.2478    1.0000 </r>
       <r>    7.3290    1.0000 </r>
       <r>    7.6206    1.0000 </r>
       <r>    7.6831    1.0000 </r>
       <r>    7.9393    0.9739 </r>
       <r>    7.9864    0.7288 </r>
       <r>    8.2822    0.0000 </r>
       <r>    8.3573    0.0000 </r>
       <r>    8.4136    0.0000 </r>
       <r>    8.5498    0.0000 </r>
       <r>    8.6047    0.0000 </r>
       <r>    8.6867    0.0000 </r>
       <r>    8.7622    0.0000 </r>
       <r>    8.8013    0.0000 </r>
       <r>    8.8573    0.0000 </r>
       <r>    8.9280    0.0000 </r>
       <r>    8.9926    0.0000 </r>
       <r>    9.0253    0.0000 </r>
       <r>    9.2464    0.0000 </r>
       <r>    9.3026    0.0000 </r>
       <r>    9.3132    0.0000 </r>
       <r>    9.3658    0.0000 </r>
       <r>    9.3974    0.0000 </r>
       <r>    9.4156    0.0000 </r>
       <r>    9.5784    0.0000 </r>
       <r>    9.7651    0.0000 </r>
       <r>    9.7928    0.0000 </r>
       <r>    9.8519    0.0000 </r>
       <r>   10.2218    0.0000 </r>
       <r>   10.2823    0.0000 </r>
       <r>   10.3036    0.0000 </r>
      </set>
      <set comment="kpoint 4">
       <r>   -3.1370    1.0000 </r>
       <r>   -1.4233    1.0000 </r>
       <r>   -0.9739    1.0000 </r>
       <r>   -0.9194    1.0000 </r>
       <r>   -0.8629    1.0000 </r>
       <r>   -0.8015    1.0000 </r>
       <r>   -0.3657    1.0000 </r>
       <r>    0.7381    1.0000 </r>
       <r>    0.7483    1.0000 </r>
       <r>    0.8297    1.0000 </r>
       <r>    0.8684    1.0000 </r>
       <r>    1.2490    1.0000 </r>
       <r>    1.3265    1.0000 </r>
       <r>    1.3428    1.0000 </r>
       <r>    1.4371    1.0000 </r>
       <r>    1.7749    1.0000 </r>
       <r>    1.8077    1.0000 </r>
       <r>    1.8914    1.0000 </r>
       <r>    1.9955    1.0000 </r>
       <r>    2.9525    1.0000 </r>
       <r>    3.0232    1.0000 </r>
       <r>    3.0486    1.0000 </r>
       <r>    3.1229    1.0000 </r>
       <r>    3.9353    1.0000 </r>
       <r>    4.0287    1.0000 </r>
       <r>    4.0408    1.0000 </r>
       <r>    4.1186    1.0000 </r>
       <r>    4.5931    1.0000 </r>
       <r>    5.0823    1.0000 </r>
       <r>    5.1095    1.0000 </r>
       <r>    6.3051    1.0000 </r>
       <r>    6.3663    1.0000 </r>
       <r>    6.4916    1.0000 </r>
       <r>    6.5639    1.0000 </r>
       <r>    6.6258    1.0000 </r>
       <r>    6.6776    1.0000 </r>
       <r>    6.8128    1.0000 </r>
       <r>    6.8564    1.0000 </r>
       <r>    6.8957    1.0000 </r>
       <r>    7.1298    1.0000 </r>
       <r>    7.1538    1.0000 </r>
       <r>    7.1985    1.0000 </r>
       <r>    7.3178    1.0000 </r>
       <r>    7.6534    1.0000 </r>
       <r>    7.7031    1.0000 </r>
       <r>    7.9381    0.9759 </r>
       <r>    7.9577    0.9221 </r>
       <r>    8.2955    0.0000 </r>
       <r>    8.4046    0.0000 </r>
       <r>    8.4321    0.0000 </r>
       <r>    8.4955    0.0000 </r>
       <r>    8.6287    0.0000 </r>
       <r>    8.6963    0.0000 </r>
       <r>    8.7280    0.0000 </r>
       <r>    8.8021    0.0000 </r>
       <r>    8.8457    0.0000 </r>
       <r>    8.8977    0.0000 </r>
       <r>    8.9635    0.0000 </r>
       <r>    9.0416    0.0000 </r>
       <r>    9.2588    0.0000 </r>
       <r>    9.2829    0.0000 </r>
       <r>    9.3261    0.0000 </r>
       <r>    9.3501    0.0000 </r>
       <r>    9.3957    0.0000 </r>
       <r>    9.4263    0.0000 </r>
       <r>    9.6878    0.0000 </r>
       <r>    9.7193    0.0000 </r>
       <r>    9.7960    0.0000 </r>
       <r>    9.8418    0.0000 </r>
       <r>   10.2238    0.0000 </r>
       <r>   10.2937    0.0000 </r>
       <r>   10.3520    0.0000 </r>
      </set>
      <set comment="kpoint 5">
       <r>   -3.0534    1.0000 </r>
       <r>   -1.8107    1.0000 </r>
       <r>   -0.9412    1.0000 </r>
       <r>   -0.8850    1.0000 </r>
       <r>   -0.7300    1.0000 </r>
       <r>   -0.6817    1.0000 </r>
       <r>    0.1645    1.0000 </r>
       <r>    0.3010    1.0000 </r>
       <r>    0.3587    1.0000 </r>
       <r>    0.4874    1.0000 </r>
       <r>    0.5542    1.0000 </r>
       <r>    1.2749    1.0000 </r>
       <r>    1.3859    1.0000 </r>
       <r>    1.4488    1.0000 </r>
       <r>    1.5464    1.0000 </r>
       <r>    2.2611    1.0000 </r>
       <r>    2.3111    1.0000 </r>
       <r>    2.4632    1.0000 </r>
       <r>    2.5097    1.0000 </r>
       <r>    2.5568    1.0000 </r>
       <r>    2.6218    1.0000 </r>
       <r>    2.6927    1.0000 </r>
       <r>    2.7941    1.0000 </r>
       <r>    3.7871    1.0000 </r>
       <r>    4.4502    1.0000 </r>
       <r>    4.5346    1.0000 </r>
       <r>    4.6060    1.0000 </r>
       <r>    4.7024    1.0000 </r>
       <r>    5.1788    1.0000 </r>
       <r>    5.1845    1.0000 </r>
       <r>    5.7450    1.0000 </r>
       <r>    5.8214    1.0000 </r>
       <r>    5.9747    1.0000 </r>
       <r>    6.0017    1.0000 </r>
       <r>    6.3621    1.0000 </r>
       <r>    6.3742    1.0000 </r>
       <r>    6.4557    1.0000 </r>
       <r>    6.4785    1.0000 </r>
       <r>    7.1164    1.0000 </r>
       <r>    7.1639    1.0000 </r>
       <r>    7.3188    1.0000 </r>
       <r>    7.3617    1.0000 </r>
       <r>    7.6331    1.0000 </r>
       <r>    7.6904    1.0000 </r>
       <r>    7.7650    1.0000 </r>
       <r>    7.9261    0.9897 </r>
       <r>    7.9949    0.6438 </r>
       <r>    8.0507    0.1130 </r>
       <r>    8.1309    0.0003 </r>
       <r>    8.1889    0.0000 </r>
       <r>    8.2273    0.0000 </r>
       <r>    8.3381    0.0000 </r>
       <r>    8.4155    0.0000 </r>
       <r>    8.5375    0.0000 </r>
       <r>    8.5558    0.0000 </r>
       <r>    8.5915    0.0000 </r>
       <r>    8.6329    0.0000 </r>
       <r>    8.7301    0.0000 </r>
       <r>    8.7941    0.0000 </r>
       <r>    9.7086    0.0000 </r>
       <r>    9.7405    0.0000 </r>
       <r>    9.7928    0.0000 </r>
       <r>    9.8198    0.0000 </r>
       <r>    9.9219    0.0000 </r>
       <r>    9.9553    0.0000 </r>
       <r>   10.0443    0.0000 </r>
       <r>   10.0560    0.0000 </r>
       <r>   10.1345    0.0000 </r>
       <r>   10.1812    0.0000 </r>
       <r>   10.2633    0.0000 </r>
       <r>   10.2951    0.0000 </r>
       <r>   10.4112    0.0000 </r>
      </set>
      <set comment="kpoint 6">
       <r>   -3.0535    1.0000 </r>
       <r>   -1.8105    1.0000 </r>
       <r>   -0.9927    1.0000 </r>
       <r>   -0.7967    1.0000 </r>
[...]
       <r>    2.6768    1.0000 </r>
       <r>    2.7928    1.0000 </r>
       <r>    2.8601    1.0000 </r>
       <r>    2.9053    1.0000 </r>
       <r>    3.0061    1.0000 </r>
       <r>    3.0914    1.0000 </r>
       <r>    3.1456    1.0000 </r>
       <r>    3.2058    1.0000 </r>
       <r>    3.2902    1.0000 </r>
       <r>    3.3219    1.0000 </r>
       <r>    3.3849    1.0000 </r>
       <r>    3.4110    1.0000 </r>
       <r>    3.5168    1.0000 </r>
       <r>    3.5669    1.0000 </r>
       <r>    3.6555    1.0000 </r>
       <r>    3.7524    1.0000 </r>
       <r>    6.3261    1.0000 </r>
       <r>    6.4087    1.0000 </r>
       <r>    6.4542    1.0000 </r>
       <r>    6.5832    1.0000 </r>
       <r>    6.6837    1.0000 </r>
       <r>    6.7156    1.0000 </r>
       <r>    7.0095    1.0000 </r>
       <r>    7.0540    1.0000 </r>
       <r>    7.0991    1.0000 </r>
       <r>    7.1257    1.0000 </r>
       <r>    7.1851    1.0000 </r>
       <r>    7.1933    1.0000 </r>
       <r>    7.2786    1.0000 </r>
       <r>    7.3420    1.0000 </r>
       <r>    7.3675    1.0000 </r>
       <r>    7.4184    1.0000 </r>
       <r>    7.5053    1.0000 </r>
       <r>    7.5344    1.0000 </r>
       <r>    7.8029    1.0000 </r>
       <r>    7.8304    1.0000 </r>
       <r>    7.9024    0.9986 </r>
       <r>    8.0560    0.0869 </r>
       <r>    8.1015    0.0041 </r>
       <r>    8.2114    0.0000 </r>
       <r>   10.3474    0.0000 </r>
       <r>   10.7138    0.0000 </r>
       <r>   10.7690    0.0000 </r>
       <r>   10.8223    0.0000 </r>
       <r>   10.9475    0.0000 </r>
       <r>   10.9754    0.0000 </r>
       <r>   11.0064    0.0000 </r>
       <r>   11.0289    0.0000 </r>
       <r>   11.0673    0.0000 </r>
       <r>   11.1092    0.0000 </r>
       <r>   11.1594    0.0000 </r>
       <r>   11.1958    0.0000 </r>
       <r>   11.2464    0.0000 </r>
       <r>   11.3316    0.0000 </r>
       <r>   11.3789    0.0000 </r>
       <r>   11.4224    0.0000 </r>
      </set>
     </set>
    </set>
   </array>
  </eigenvalues>
  <separator name="orbital magnetization" >
   <v name="MAGDIPOLOUT">      0.00000000      0.00000000      0.00000000</v>
  </separator>
  <dos>
   <i name="efermi">      8.00792198 </i>
   <total>
    <array>
     <dimension dim="1">gridpoints</dimension>
     <dimension dim="2">spin</dimension>
     <field>energy</field>
     <field>total</field>
     <field>integrated</field>
     <set>
      <set comment="spin 1">
       <r>    -3.9110     0.0000     0.0000 </r>
       <r>    -3.8563     0.0000     0.0000 </r>
       <r>    -3.8016     0.0000     0.0000 </r>
       <r>    -3.7468     0.0000     0.0000 </r>
       <r>    -3.6921     0.0000     0.0000 </r>
       <r>    -3.6374     0.0000     0.0000 </r>
       <r>    -3.5826     0.0000     0.0000 </r>
       <r>    -3.5279     0.0000     0.0000 </r>
       <r>    -3.4732     0.0000     0.0000 </r>
       <r>    -3.4184     0.0000     0.0000 </r>
       <r>    -3.3637     0.0000     0.0000 </r>
       <r>    -3.3090     0.0000     0.0000 </r>
       <r>    -3.2542     0.0004     0.0000 </r>
       <r>    -3.1995     0.0226     0.0013 </r>
       <r>    -3.1448     0.2474     0.0148 </r>
       <r>    -3.0900     0.7306     0.0548 </r>
       <r>    -3.0353     1.1666     0.1186 </r>
       <r>    -2.9806     1.5324     0.2025 </r>
       <r>    -2.9259     1.5246     0.2860 </r>
       <r>    -2.8711     2.1379     0.4030 </r>
       <r>    -2.8164     2.0848     0.5171 </r>
       <r>    -2.7617     2.3181     0.6439 </r>
       <r>    -2.7069     2.1643     0.7624 </r>
       <r>    -2.6522     3.0057     0.9269 </r>
       <r>    -2.5975     3.0790     1.0954 </r>
       <r>    -2.5427     2.6204     1.2389 </r>
       <r>    -2.4880     2.2564     1.3624 </r>
       <r>    -2.4333     3.5500     1.5567 </r>
       <r>    -2.3785     3.6013     1.7538 </r>
       <r>    -2.3238     3.5916     1.9503 </r>
       <r>    -2.2691     2.8750     2.1077 </r>
       <r>    -2.2143     3.6411     2.3070 </r>
       <r>    -2.1596     3.9205     2.5216 </r>
       <r>    -2.1049     3.7918     2.7291 </r>
       <r>    -2.0501     4.2383     2.9611 </r>
       <r>    -1.9954     4.4872     3.2067 </r>
       <r>    -1.9407     4.1179     3.4320 </r>
       <r>    -1.8859     3.3259     3.6141 </r>
       <r>    -1.8312     3.2364     3.7912 </r>
       <r>    -1.7765     4.1193     4.0167 </r>
       <r>    -1.7217     5.4697     4.3160 </r>
       <r>    -1.6670     5.3314     4.6078 </r>
       <r>    -1.6123     4.1274     4.8338 </r>
       <r>    -1.5575     3.9695     5.0510 </r>
       <r>    -1.5028     4.6647     5.3063 </r>
       <r>    -1.4481     4.7352     5.5655 </r>
       <r>    -1.3933     4.7763     5.8269 </r>
       <r>    -1.3386     5.7218     6.1401 </r>
       <r>    -1.2839     5.8821     6.4620 </r>
       <r>    -1.2291     4.4997     6.7083 </r>
       <r>    -1.1744     4.0710     6.9311 </r>
       <r>    -1.1197     6.0428     7.2618 </r>
       <r>    -1.0649     6.6517     7.6259 </r>
       <r>    -1.0102     5.6029     7.9326 </r>
       <r>    -0.9555     4.4988     8.1788 </r>
       <r>    -0.9008     4.4798     8.4240 </r>
       <r>    -0.8460     5.6696     8.7343 </r>
       <r>    -0.7913     6.6037     9.0957 </r>
       <r>    -0.7366     6.6938     9.4621 </r>
       <r>    -0.6818     7.2019     9.8563 </r>
       <r>    -0.6271     5.4016    10.1519 </r>
       <r>    -0.5724     5.3823    10.4465 </r>
       <r>    -0.5176     4.7579    10.7069 </r>
       <r>    -0.4629     5.9213    11.0310 </r>
       <r>    -0.4082     7.4035    11.4362 </r>
       <r>    -0.3534     6.9063    11.8142 </r>
       <r>    -0.2987     6.8712    12.1903 </r>
       <r>    -0.2440     6.2198    12.5307 </r>
       <r>    -0.1892     5.8108    12.8488 </r>
       <r>    -0.1345     6.4425    13.2014 </r>
       <r>    -0.0798     6.4386    13.5538 </r>
       <r>    -0.0250     7.0382    13.9390 </r>
       <r>     0.0297     7.2598    14.3363 </r>
       <r>     0.0844     6.4670    14.6903 </r>
       <r>     0.1392     6.5039    15.0463 </r>
       <r>     0.1939     6.8759    15.4226 </r>
       <r>     0.2486     7.2678    15.8204 </r>
       <r>     0.3034     6.4008    16.1707 </r>
       <r>     0.3581     6.7598    16.5407 </r>
       <r>     0.4128     7.0148    16.9246 </r>
       <r>     0.4676     8.1427    17.3703 </r>
       <r>     0.5223     7.5397    17.7830 </r>
       <r>     0.5770     7.2546    18.1800 </r>
       <r>     0.6318     6.7004    18.5468 </r>
       <r>     0.6865     6.4177    18.8980 </r>
       <r>     0.7412     7.2998    19.2976 </r>
       <r>     0.7960     6.2300    19.6385 </r>
       <r>     0.8507     7.5180    20.0500 </r>
       <r>     0.9054     8.8989    20.5371 </r>
       <r>     0.9602     7.8133    20.9647 </r>
       <r>     1.0149     8.3964    21.4243 </r>
       <r>     1.0696     9.3605    21.9366 </r>
       <r>     1.1244     7.5363    22.3491 </r>
       <r>     1.1791     7.0715    22.7361 </r>
       <r>     1.2338     7.1407    23.1270 </r>
       <r>     1.2885     6.8960    23.5044 </r>
       <r>     1.3433     8.7690    23.9843 </r>
       <r>     1.3980     8.8052    24.4663 </r>
       <r>     1.4527     6.9727    24.8479 </r>
       <r>     1.5075     7.8288    25.2764 </r>
       <r>     1.5622    10.3211    25.8413 </r>
       <r>     1.6169     8.4988    26.3065 </r>
       <r>     1.6717     7.1125    26.6957 </r>
       <r>     1.7264     7.3128    27.0960 </r>
       <r>     1.7811     9.3531    27.6079 </r>
       <r>     1.8359     9.8585    28.1475 </r>
       <r>     1.8906     8.8162    28.6300 </r>
       <r>     1.9453    10.0137    29.1781 </r>
       <r>     2.0001     9.0024    29.6708 </r>
       <r>     2.0548     6.8402    30.0452 </r>
       <r>     2.1095     6.6227    30.4077 </r>
       <r>     2.1643     8.3198    30.8630 </r>
       <r>     2.2190     9.0205    31.3568 </r>
       <r>     2.2737    10.4414    31.9282 </r>
       <r>     2.3285     9.6266    32.4551 </r>
       <r>     2.3832     7.2120    32.8499 </r>
       <r>     2.4379     9.1252    33.3493 </r>
       <r>     2.4927    12.5239    34.0348 </r>
       <r>     2.5474     9.9463    34.5791 </r>
       <r>     2.6021     8.2671    35.0316 </r>
       <r>     2.6569     9.1130    35.5304 </r>
       <r>     2.7116     9.8494    36.0695 </r>
       <r>     2.7663     8.3764    36.5279 </r>
       <r>     2.8211     8.3890    36.9871 </r>
       <r>     2.8758     9.0446    37.4821 </r>
       <r>     2.9305     8.5863    37.9521 </r>
       <r>     2.9853     8.8010    38.4338 </r>
       <r>     3.0400    10.4983    39.0084 </r>
       <r>     3.0947    11.6317    39.6450 </r>
       <r>     3.1495    10.5423    40.2220 </r>
       <r>     3.2042    10.0173    40.7703 </r>
       <r>     3.2589    11.5133    41.4004 </r>
       <r>     3.3137    10.9311    41.9987 </r>
       <r>     3.3684     8.1409    42.4443 </r>
       <r>     3.4231     8.3543    42.9015 </r>
       <r>     3.4778     9.1376    43.4017 </r>
       <r>     3.5326    10.8274    43.9943 </r>
       <r>     3.5873    11.3047    44.6130 </r>
       <r>     3.6420    11.1126    45.2212 </r>
       <r>     3.6968    10.8672    45.8160 </r>
       <r>     3.7515     8.7566    46.2953 </r>
       <r>     3.8062     8.4345    46.7569 </r>
       <r>     3.8610     8.7902    47.2380 </r>
       <r>     3.9157    11.2862    47.8558 </r>
       <r>     3.9704    12.2243    48.5248 </r>
       <r>     4.0252    11.7848    49.1698 </r>
       <r>     4.0799    11.7188    49.8112 </r>
       <r>     4.1346     9.3306    50.3219 </r>
       <r>     4.1894    10.5410    50.8989 </r>
       <r>     4.2441    11.0584    51.5041 </r>
       <r>     4.2988    11.8527    52.1528 </r>
       <r>     4.3536    12.9421    52.8612 </r>
       <r>     4.4083     9.5234    53.3824 </r>
       <r>     4.4630     9.2892    53.8909 </r>
       <r>     4.5178     9.1565    54.3920 </r>
       <r>     4.5725     9.3278    54.9025 </r>
       <r>     4.6272    11.4316    55.5282 </r>
       <r>     4.6820    12.2833    56.2005 </r>
       <r>     4.7367    12.9408    56.9088 </r>
       <r>     4.7914    12.7436    57.6063 </r>
       <r>     4.8462    11.9100    58.2582 </r>
       <r>     4.9009    13.0485    58.9723 </r>
       <r>     4.9556    11.9997    59.6291 </r>
       <r>     5.0104    10.8711    60.2241 </r>
       <r>     5.0651     9.9830    60.7705 </r>
       <r>     5.1198    12.1411    61.4350 </r>
       <r>     5.1746    12.6966    62.1299 </r>
       <r>     5.2293    12.4857    62.8133 </r>
       <r>     5.2840    11.7720    63.4576 </r>
       <r>     5.3388    12.5717    64.1457 </r>
       <r>     5.3935    11.9709    64.8009 </r>
       <r>     5.4482    10.9284    65.3990 </r>
       <r>     5.5029    11.5482    66.0311 </r>
       <r>     5.5577    12.9305    66.7388 </r>
       <r>     5.6124    12.7182    67.4349 </r>
       <r>     5.6671    12.0408    68.0939 </r>
       <r>     5.7219    11.5493    68.7261 </r>
       <r>     5.7766    11.4277    69.3515 </r>
       <r>     5.8313    10.3750    69.9194 </r>
       <r>     5.8861    11.5988    70.5542 </r>
       <r>     5.9408    11.7013    71.1946 </r>
       <r>     5.9955    10.1176    71.7484 </r>
       <r>     6.0503     9.8735    72.2888 </r>
       <r>     6.1050    11.5370    72.9202 </r>
       <r>     6.1597    12.8433    73.6232 </r>
       <r>     6.2145    11.7666    74.2672 </r>
       <r>     6.2692    11.0761    74.8734 </r>
       <r>     6.3239    11.7115    75.5144 </r>
       <r>     6.3787    12.0912    76.1762 </r>
       <r>     6.4334    12.7608    76.8746 </r>
       <r>     6.4881    11.7307    77.5167 </r>
       <r>     6.5429    10.4209    78.0871 </r>
       <r>     6.5976    10.4019    78.6564 </r>
       <r>     6.6523    10.3984    79.2255 </r>
       <r>     6.7071    11.7162    79.8668 </r>
       <r>     6.7618    11.7267    80.5086 </r>
       <r>     6.8165    11.5212    81.1392 </r>
       <r>     6.8713    13.3111    81.8677 </r>
       <r>     6.9260    13.3761    82.5998 </r>
       <r>     6.9807    13.9381    83.3627 </r>
       <r>     7.0355    14.4233    84.1521 </r>
       <r>     7.0902    12.6593    84.8450 </r>
       <r>     7.1449    11.2530    85.4609 </r>
       <r>     7.1997    12.0935    86.1228 </r>
       <r>     7.2544    11.2997    86.7413 </r>
       <r>     7.3091    11.4393    87.3674 </r>
       <r>     7.3639    13.4021    88.1009 </r>
       <r>     7.4186    12.3408    88.7764 </r>
       <r>     7.4733    10.6128    89.3572 </r>
       <r>     7.5281    12.5847    90.0460 </r>
       <r>     7.5828    13.1493    90.7657 </r>
       <r>     7.6375    12.5282    91.4514 </r>
       <r>     7.6922    13.6498    92.1985 </r>
       <r>     7.7470    12.1176    92.8617 </r>
       <r>     7.8017     9.9023    93.4037 </r>
       <r>     7.8564    10.8966    94.0001 </r>
       <r>     7.9112    13.4613    94.7369 </r>
       <r>     7.9659    13.0593    95.4516 </r>
       <r>     8.0206    13.0452    96.1656 </r>
       <r>     8.0754    13.0110    96.8777 </r>
       <r>     8.1301    13.8798    97.6374 </r>
       <r>     8.1848    14.1922    98.4142 </r>
       <r>     8.2396    13.5084    99.1536 </r>
       <r>     8.2943    14.5202    99.9483 </r>
       <r>     8.3490    14.9322   100.7656 </r>
       <r>     8.4038    15.0742   101.5906 </r>
       <r>     8.4585    13.5696   102.3333 </r>
       <r>     8.5132    12.6067   103.0233 </r>
       <r>     8.5680    12.0218   103.6813 </r>
       <r>     8.6227    10.3092   104.2455 </r>
       <r>     8.6774    12.1678   104.9115 </r>
       <r>     8.7322    13.3084   105.6399 </r>
       <r>     8.7869    12.3950   106.3183 </r>
       <r>     8.8416    12.2183   106.9870 </r>
       <r>     8.8964    12.4584   107.6689 </r>
       <r>     8.9511    14.5032   108.4627 </r>
       <r>     9.0058    16.9387   109.3898 </r>
       <r>     9.0606    16.0111   110.2661 </r>
       <r>     9.1153    14.3642   111.0523 </r>
       <r>     9.1700    14.8301   111.8640 </r>
       <r>     9.2248    14.3920   112.6517 </r>
       <r>     9.2795    13.2158   113.3751 </r>
       <r>     9.3342    13.0996   114.0920 </r>
       <r>     9.3890    12.1187   114.7553 </r>
       <r>     9.4437    12.1848   115.4222 </r>
       <r>     9.4984    12.1230   116.0857 </r>
       <r>     9.5532    12.3830   116.7635 </r>
       <r>     9.6079    13.5083   117.5028 </r>
       <r>     9.6626    13.3496   118.2335 </r>
       <r>     9.7173    14.3660   119.0198 </r>
       <r>     9.7721    15.9911   119.8950 </r>
       <r>     9.8268    17.1162   120.8318 </r>
       <r>     9.8815    15.9728   121.7061 </r>
       <r>     9.9363    13.5209   122.4461 </r>
       <r>     9.9910    14.4029   123.2344 </r>
       <r>    10.0457    15.6246   124.0896 </r>
       <r>    10.1005    13.6228   124.8352 </r>
       <r>    10.1552    11.6403   125.4723 </r>
       <r>    10.2099    13.2342   126.1966 </r>
       <r>    10.2647    13.9996   126.9629 </r>
       <r>    10.3194    14.2053   127.7403 </r>
       <r>    10.3741    13.1462   128.4599 </r>
       <r>    10.4289    15.4315   129.3045 </r>
       <r>    10.4836    17.0831   130.2395 </r>
       <r>    10.5383    14.5945   131.0383 </r>
       <r>    10.5931    15.6414   131.8944 </r>
       <r>    10.6478    14.9973   132.7152 </r>
       <r>    10.7025    14.8616   133.5286 </r>
       <r>    10.7573    15.1395   134.3572 </r>
       <r>    10.8120    13.2478   135.0823 </r>
       <r>    10.8667    13.7415   135.8344 </r>
       <r>    10.9215    14.2442   136.6141 </r>
       <r>    10.9762    12.5137   137.2990 </r>
       <r>    11.0309    12.9277   138.0065 </r>
       <r>    11.0857    12.9577   138.7157 </r>
       <r>    11.1404    12.0786   139.3768 </r>
       <r>    11.1951    10.4378   139.9481 </r>
       <r>    11.2499    11.1063   140.5560 </r>
       <r>    11.3046    12.4201   141.2358 </r>
       <r>    11.3593    10.9936   141.8375 </r>
       <r>    11.4141    11.0939   142.4447 </r>
       <r>    11.4688     8.1378   142.8901 </r>
       <r>    11.5235     4.9615   143.1616 </r>
       <r>    11.5783     5.2258   143.4476 </r>
       <r>    11.6330     5.0242   143.7226 </r>
       <r>    11.6877     2.9156   143.8822 </r>
       <r>    11.7425     1.5141   143.9651 </r>
       <r>    11.7972     0.5668   143.9961 </r>
       <r>    11.8519     0.0696   143.9999 </r>
       <r>    11.9066     0.0016   144.0000 </r>
       <r>    11.9614     0.0000   144.0000 </r>
       <r>    12.0161     0.0000   144.0000 </r>
       <r>    12.0708     0.0000   144.0000 </r>
       <r>    12.1256     0.0000   144.0000 </r>
       <r>    12.1803     0.0000   144.0000 </r>
       <r>    12.2350     0.0000   144.0000 </r>
       <r>    12.2898     0.0000   144.0000 </r>
       <r>    12.3445     0.0000   144.0000 </r>
       <r>    12.3992     0.0000   144.0000 </r>
       <r>    12.4540     0.0000   144.0000 </r>
       <r>    12.5087     0.0000   144.0000 </r>
      </set>
     </set>
    </array>
   </total>
  </dos>
 </calculation>
 <structure name="finalpos" >
  <crystal>
   <varray name="basis" >
    <v>       8.07809510       0.00000000       0.00000000 </v>
    <v>       0.00000000       8.07809510       0.00000000 </v>
    <v>       0.00000000       0.00000000       8.07809510 </v>
   </varray>
   <i name="volume">    527.14110776 </i>
   <varray name="rec_basis" >
    <v>       0.12379156       0.00000000       0.00000000 </v>
    <v>       0.00000000       0.12379156       0.00000000 </v>
    <v>       0.00000000       0.00000000       0.12379156 </v>
   </varray>
  </crystal>
  <varray name="positions" >
   <v>       0.99384595       0.98601367       0.00958546 </v>
   <v>       0.00072549       0.24724413       0.22989544 </v>
   <v>       0.24355010       0.01324047       0.25199451 </v>
   <v>       0.25456616       0.24952038       0.00543749 </v>
   <v>       0.00190456       0.00899175       0.51619988 </v>
   <v>       0.98312276       0.26130134       0.74327341 </v>
   <v>       0.25873089       0.99243900       0.76724240 </v>
   <v>       0.26098073       0.24218643       0.47610064 </v>
   <v>       0.99730244       0.50127198       0.99931376 </v>
   <v>       0.01762948       0.74042701       0.25115919 </v>
   <v>       0.26876802       0.49760105       0.25078496 </v>
   <v>       0.25116481       0.73538710       0.98483135 </v>
   <v>       0.00151797       0.48195700       0.49003455 </v>
   <v>       0.98406771       0.75862420       0.73638244 </v>
   <v>       0.22987364       0.47704447       0.73811768 </v>
   <v>       0.22889005       0.74723939       0.50784408 </v>
   <v>       0.49400191       0.99876644       0.98783432 </v>
   <v>       0.50460188       0.23239502       0.23102943 </v>
   <v>       0.73979111       0.98065184       0.23580345 </v>
   <v>       0.74740344       0.24437955       0.00932269 </v>
   <v>       0.49794384       0.00327665       0.49875626 </v>
   <v>       0.48992358       0.27288020       0.74201878 </v>
   <v>       0.74545048       0.01191972       0.74599035 </v>
   <v>       0.75392109       0.25084234       0.49236745 </v>
   <v>       0.50508121       0.50658534       0.01604028 </v>
   <v>       0.48864934       0.74693656       0.25432090 </v>
   <v>       0.75472307       0.47903218       0.25755563 </v>
   <v>       0.74756654       0.75555751       0.00202242 </v>
   <v>       0.51296492       0.51540315       0.50341236 </v>
   <v>       0.50649540       0.75221129       0.74997222 </v>
   <v>       0.75580917       0.51165244       0.73917991 </v>
   <v>       0.76964834       0.76439250       0.48557828 </v>
  </varray>
 </structure>
</modeling>
