<?xml version="1.0" encoding="ISO-8859-1"?>
<modeling>
 <generator>
  <i name="program" type="string">vasp </i>
  <i name="version" type="string">6.2.0  </i>
  <i name="subversion" type="string">18Jan21 (build Mar 25 2021 14:28:09) complex                          parallel </i>
  <i name="platform" type="string">LinuxGNU </i>
  <i name="date" type="string">2021 12 20 </i>
  <i name="time" type="string">09:52:40 </i>
 </generator>
 <incar>
  <i type="string" name="SYSTEM">benzene</i>
  <i type="int" name="ISTART">     0</i>
  <i type="string" name="PREC">Accurate</i>
  <i type="string" name="ALGO">Normal</i>
  <i type="int" name="NELM">   200</i>
  <i type="int" name="IBRION">    -1</i>
  <i name="EDIFF">      0.00000100</i>
  <i type="int" name="NSW">     0</i>
  <i name="ENCUT">    600.00000000</i>
  <i type="logical" name="LREAL"> F  </i>
  <i type="int" name="ISMEAR">     0</i>
  <i name="SIGMA">      0.05000000</i>
  <i type="logical" name="LWAVE"> F  </i>
  <i type="logical" name="LCHARG"> T  </i>
  <i type="string" name="GGA">PE</i>
 </incar>
 <primitive_cell>
  <structure name="primitive_cell" >
   <crystal>
    <varray name="basis" >
     <v>      10.58354422       0.00000000       0.00000000 </v>
     <v>       0.00000000      10.58354422       0.00000000 </v>
     <v>       0.00000000       0.00000000      10.58354422 </v>
    </varray>
    <i name="volume">   1185.47769178 </i>
    <varray name="rec_basis" >
     <v>       0.09448631       0.00000000       0.00000000 </v>
     <v>       0.00000000       0.09448631       0.00000000 </v>
     <v>       0.00000000       0.00000000       0.09448631 </v>
    </varray>
   </crystal>
   <varray name="positions" >
    <v>       0.50020560       0.62819815       0.50461530 </v>
    <v>       0.38788340       0.56322090       0.50500305 </v>
    <v>       0.38149640       0.43884060       0.49368140 </v>
    <v>       0.49618265       0.37219085       0.50239260 </v>
    <v>       0.61841025       0.43320810       0.49872585 </v>
    <v>       0.61426840       0.56484000       0.50146635 </v>
    <v>       0.49284210       0.73831450       0.50142345 </v>
    <v>       0.30041490       0.61016675       0.49791385 </v>
    <v>       0.29974045       0.38106980       0.49429925 </v>
    <v>       0.49851035       0.27872350       0.50917820 </v>
    <v>       0.70461110       0.37875185       0.49488160 </v>
    <v>       0.70543430       0.61247490       0.49641925 </v>
   </varray>
  </structure>
  <varray name="primitive_index" >
   <v type="int" >        1 </v>
   <v type="int" >        2 </v>
   <v type="int" >        3 </v>
   <v type="int" >        4 </v>
   <v type="int" >        5 </v>
   <v type="int" >        6 </v>
   <v type="int" >        7 </v>
   <v type="int" >        8 </v>
   <v type="int" >        9 </v>
   <v type="int" >       10 </v>
   <v type="int" >       11 </v>
   <v type="int" >       12 </v>
  </varray>
 </primitive_cell>
 <kpoints>
  <generation param="Gamma">
   <v type="int" name="divisions">       1        1        1 </v>
   <v name="usershift">      0.00000000       0.00000000       0.00000000 </v>
   <v name="genvec1">      1.00000000       0.00000000       0.00000000 </v>
   <v name="genvec2">      0.00000000       1.00000000       0.00000000 </v>
   <v name="genvec3">      0.00000000       0.00000000       1.00000000 </v>
   <v name="shift">      0.00000000       0.00000000       0.00000000 </v>
  </generation>
  <varray name="kpointlist" >
   <v>       0.00000000       0.00000000       0.00000000 </v>
  </varray>
  <varray name="weights" >
   <v>       1.00000000 </v>
  </varray>
 </kpoints>
 <parameters>
  <separator name="general" >
   <i type="string" name="SYSTEM">benzene</i>
   <i type="logical" name="LCOMPAT"> F  </i>
  </separator>
  <separator name="electronic" >
   <i type="string" name="PREC">accura</i>
   <i name="ENMAX">    600.00000000</i>
   <i name="ENAUG">    644.87300000</i>
   <i name="EDIFF">      0.00000100</i>
   <i type="int" name="IALGO">    38</i>
   <i type="int" name="IWAVPR">    10</i>
   <i type="int" name="NBANDS">    24</i>
   <i type="int" name="NBANDSLOW">    -1</i>
   <i type="int" name="NBANDSHIGH">    -1</i>
   <i name="NELECT">     30.00000000</i>
   <i type="int" name="TURBO">     0</i>
   <i type="int" name="IRESTART">     0</i>
   <i type="int" name="NREBOOT">     0</i>
   <i type="int" name="NMIN">     0</i>
   <i name="EREF">      0.00000000</i>
   <separator name="electronic smearing" >
    <i type="int" name="ISMEAR">     0</i>
    <i name="SIGMA">      0.05000000</i>
    <i name="KSPACING">      0.50000000</i>
    <i type="logical" name="KGAMMA"> T  </i>
    <i type="logical" name="KBLOWUP"> T  </i>
   </separator>
   <separator name="electronic projectors" >
    <i type="logical" name="LREAL"> F  </i>
    <v name="ROPT">      0.00000000      0.00000000</v>
    <i type="int" name="LMAXPAW">  -100</i>
    <i type="int" name="LMAXMIX">     2</i>
    <i type="logical" name="NLSPLINE"> F  </i>
   </separator>
   <separator name="electronic startup" >
    <i type="int" name="ISTART">     0</i>
    <i type="int" name="ICHARG">     2</i>
    <i type="int" name="INIWAV">     1</i>
   </separator>
   <separator name="electronic spin" >
    <i type="int" name="ISPIN">     1</i>
    <i type="logical" name="LNONCOLLINEAR"> F  </i>
    <v name="MAGMOM">      1.00000000      1.00000000      1.00000000      1.00000000      1.00000000      1.00000000      1.00000000      1.00000000      1.00000000      1.00000000      1.00000000      1.00000000</v>
    <i name="NUPDOWN">     -1.00000000</i>
    <i type="logical" name="LSORBIT"> F  </i>
    <v name="SAXIS">      0.00000000      0.00000000      1.00000000</v>
    <i type="logical" name="LSPIRAL"> F  </i>
    <v name="QSPIRAL">      0.00000000      0.00000000      0.00000000</v>
    <i type="logical" name="LZEROZ"> F  </i>
   </separator>
   <separator name="electronic exchange-correlation" >
    <i type="logical" name="LASPH"> F  </i>
    <i type="logical" name="LMETAGGA"> F  </i>
   </separator>
   <separator name="electronic convergence" >
    <i type="int" name="NELM">   200</i>
    <i type="int" name="NELMDL">    -5</i>
    <i type="int" name="NELMIN">     2</i>
    <i name="ENINI">    600.00000000</i>
    <separator name="electronic convergence detail" >
     <i type="logical" name="LDIAG"> T  </i>
     <i type="logical" name="LSUBROT"> F  </i>
     <i name="WEIMIN">      0.00000000</i>
     <i name="EBREAK">      0.00000001</i>
     <i name="DEPER">      0.30000000</i>
     <i type="int" name="NRMM">     4</i>
     <i name="TIME">      0.40000000</i>
    </separator>
   </separator>
   <separator name="electronic mixer" >
    <i name="AMIX">      0.40000000</i>
    <i name="BMIX">      1.00000000</i>
    <i name="AMIN">      0.10000000</i>
    <i name="AMIX_MAG">      1.60000000</i>
    <i name="BMIX_MAG">      1.00000000</i>
    <separator name="electronic mixer details" >
     <i type="int" name="IMIX">     4</i>
     <i type="logical" name="MIXFIRST"> F  </i>
     <i type="int" name="MAXMIX">   -45</i>
     <i name="WC">    100.00000000</i>
     <i type="int" name="INIMIX">     1</i>
     <i type="int" name="MIXPRE">     1</i>
     <i type="int" name="MREMOVE">     5</i>
    </separator>
   </separator>
   <separator name="electronic dipolcorrection" >
    <i type="logical" name="LDIPOL"> F  </i>
    <i type="logical" name="LMONO"> F  </i>
    <i type="int" name="IDIPOL">     0</i>
    <i name="EPSILON">      1.00000000</i>
    <v name="DIPOL">   -100.00000000   -100.00000000   -100.00000000</v>
    <i name="EFIELD">      0.00000000</i>
   </separator>
  </separator>
  <separator name="grids" >
   <i type="int" name="NGX">    90</i>
   <i type="int" name="NGY">    90</i>
   <i type="int" name="NGZ">    90</i>
   <i type="int" name="NGXF">   180</i>
   <i type="int" name="NGYF">   180</i>
   <i type="int" name="NGZF">   180</i>
   <i type="logical" name="ADDGRID"> F  </i>
  </separator>
  <separator name="ionic" >
   <i type="int" name="NSW">     0</i>
   <i type="int" name="IBRION">    -1</i>
   <i type="int" name="MDALGO">     0</i>
   <i type="int" name="ISIF">     2</i>
   <i name="PSTRESS">      0.00000000</i>
   <i name="EDIFFG">      0.00001000</i>
   <i type="int" name="NFREE">     0</i>
   <i name="POTIM">      0.50000000</i>
   <i name="SMASS">     -3.00000000</i>
   <i name="SCALEE">      1.00000000</i>
  </separator>
  <separator name="ionic md" >
   <i name="TEBEG">      0.00010000</i>
   <i name="TEEND">      0.00010000</i>
   <i type="int" name="NBLOCK">     1</i>
   <i type="int" name="KBLOCK">     1</i>
   <i type="int" name="NPACO">   256</i>
   <i name="APACO">     16.00000000</i>
  </separator>
  <separator name="symmetry" >
   <i type="int" name="ISYM">     2</i>
   <i name="SYMPREC">      0.00001000</i>
  </separator>
  <separator name="dos" >
   <i type="int" name="LORBIT">     0</i>
   <v name="RWIGS">     -1.00000000     -1.00000000</v>
   <i type="int" name="NEDOS">   301</i>
   <i name="EMIN">     10.00000000</i>
   <i name="EMAX">    -10.00000000</i>
   <i name="EFERMI">      0.00000000</i>
  </separator>
  <separator name="writing" >
   <i type="int" name="NWRITE">     2</i>
   <i type="logical" name="LWAVE"> F  </i>
   <i type="logical" name="LDOWNSAMPLE"> F  </i>
   <i type="logical" name="LCHARG"> T  </i>
   <i type="logical" name="LPARD"> F  </i>
   <i type="logical" name="LVTOT"> F  </i>
   <i type="logical" name="LVHAR"> F  </i>
   <i type="logical" name="LELF"> F  </i>
   <i type="logical" name="LOPTICS"> F  </i>
   <v name="STM">      0.00000000      0.00000000      0.00000000      0.00000000      0.00000000      0.00000000      0.00000000</v>
  </separator>
  <separator name="performance" >
   <i type="int" name="NPAR">     4</i>
   <i type="int" name="NSIM">     4</i>
   <i type="int" name="NBLK">    -1</i>
   <i type="logical" name="LPLANE"> T  </i>
   <i type="logical" name="LSCALAPACK"> T  </i>
   <i type="logical" name="LSCAAWARE"> F  </i>
   <i type="logical" name="LSCALU"> F  </i>
   <i type="logical" name="LASYNC"> F  </i>
   <i type="logical" name="LORBITALREAL"> F  </i>
  </separator>
  <separator name="miscellaneous" >
   <i type="int" name="IDIOT">     3</i>
   <i type="int" name="PHON_NSTRUCT">    -1</i>
   <i type="logical" name="LMUSIC"> F  </i>
   <v name="POMASS">     12.01100000      1.00000000</v>
   <v name="DARWINR">      0.00000000      0.00000000</v>
   <v name="DARWINV">      1.00000000      1.00000000</v>
   <i type="logical" name="LCORR"> T  </i>
  </separator>
  <i type="logical" name="GGA_COMPAT"> T  </i>
  <i type="logical" name="LBERRY"> F  </i>
  <i type="int" name="ICORELEVEL">     0</i>
  <i type="logical" name="LDAU"> F  </i>
  <i type="int" name="I_CONSTRAINED_M">     0</i>
  <separator name="electronic exchange-correlation" >
   <i type="string" name="GGA">PE</i>
   <i type="int" name="VOSKOWN">     0</i>
   <i type="logical" name="LHFCALC"> F  </i>
   <i type="string" name="PRECFOCK"></i>
   <i type="logical" name="LSYMGRAD"> F  </i>
   <i type="logical" name="LHFONE"> F  </i>
   <i type="logical" name="LRHFCALC"> F  </i>
   <i type="logical" name="LTHOMAS"> F  </i>
   <i type="logical" name="LMODELHF"> F  </i>
   <i type="logical" name="LFOCKACE"> F  </i>
   <i name="ENCUT4O">     -1.00000000</i>
   <i type="int" name="EXXOEP">     0</i>
   <i type="int" name="FOURORBIT">     0</i>
   <i name="AEXX">      0.00000000</i>
   <i name="HFALPHA">      0.00000000</i>
   <i name="MCALPHA">      0.00000000</i>
   <i name="ALDAX">      1.00000000</i>
   <i name="AGGAX">      1.00000000</i>
   <i name="ALDAC">      1.00000000</i>
   <i name="AGGAC">      1.00000000</i>
   <i type="int" name="NKREDX">     1</i>
   <i type="int" name="NKREDY">     1</i>
   <i type="int" name="NKREDZ">     1</i>
   <i type="logical" name="SHIFTRED"> F  </i>
   <i type="logical" name="ODDONLY"> F  </i>
   <i type="logical" name="EVENONLY"> F  </i>
   <i type="int" name="LMAXFOCK">     0</i>
   <i type="int" name="NMAXFOCKAE">     0</i>
   <i type="logical" name="LFOCKAEDFT"> F  </i>
   <i name="HFSCREEN">      0.00000000</i>
   <i name="HFSCREENC">      0.00000000</i>
   <i type="int" name="NBANDSGWLOW">     0</i>
  </separator>
  <separator name="vdW DFT" >
   <i type="logical" name="LUSE_VDW"> F  </i>
   <i name="Zab_VDW">     -0.84910000</i>
   <i name="PARAM1">      0.12340000</i>
   <i name="PARAM2">      1.00000000</i>
   <i name="PARAM3">      0.00000000</i>
  </separator>
  <separator name="model GW" >
   <i type="int" name="MODEL_GW">     0</i>
   <i name="MODEL_EPS0">     59.27388459</i>
   <i name="MODEL_ALPHA">      1.00000000</i>
  </separator>
  <separator name="linear response parameters" >
   <i type="logical" name="LEPSILON"> F  </i>
   <i type="logical" name="LRPA"> F  </i>
   <i type="logical" name="LNABLA"> F  </i>
   <i type="logical" name="LVEL"> F  </i>
   <i type="int" name="KINTER">     0</i>
   <i name="CSHIFT">      0.10000000</i>
   <i name="OMEGAMAX">     -1.00000000</i>
   <i name="DEG_THRESHOLD">      0.00200000</i>
   <i name="RTIME">     -0.10000000</i>
   <i name="WPLASMAI">      0.00000000</i>
   <v name="DFIELD">      0.00000000      0.00000000      0.00000000</v>
   <v name="WPLASMA">      0.00000000      0.00000000      0.00000000      0.00000000      0.00000000      0.00000000      0.00000000      0.00000000      0.00000000</v>
  </separator>
  <separator name="orbital magnetization" >
   <i type="logical" name="NUCIND"> F  </i>
   <v name="MAGPOS">      0.00000000      0.00000000      0.00000000</v>
   <i type="logical" name="LNICSALL"> T  </i>
   <i type="logical" name="ORBITALMAG"> F  </i>
   <i type="logical" name="LMAGBLOCH"> F  </i>
   <i type="logical" name="LCHIMAG"> F  </i>
   <i type="logical" name="LGAUGE"> T  </i>
   <i type="int" name="MAGATOM">     0</i>
   <v name="MAGDIPOL">      0.00000000      0.00000000      0.00000000</v>
   <v name="AVECCONST">      0.00000000      0.00000000      0.00000000</v>
  </separator>
  <separator name="response functions" >
   <i type="logical" name="LFINITE_TEMPERATURE"> F  </i>
   <i type="logical" name="LADDER"> F  </i>
   <i type="logical" name="LRPAFORCE"> F  </i>
   <i type="logical" name="LFXC"> F  </i>
   <i type="logical" name="LHARTREE"> T  </i>
   <i type="int" name="IBSE">     0</i>
   <v type="int" name="KPOINT">    -1     0     0     0</v>
   <i type="logical" name="LTCTC"> F  </i>
   <i type="logical" name="LTCTE"> F  </i>
   <i type="logical" name="LTETE"> F  </i>
   <i type="logical" name="LTRIPLET"> F  </i>
   <i type="logical" name="LFXCEPS"> F  </i>
   <i type="logical" name="LFXHEG"> F  </i>
   <i type="int" name="NATURALO">     2</i>
   <i type="logical" name="LHOLEGF"> F  </i>
   <i type="logical" name="L2ORDER"> F  </i>
   <i type="logical" name="LDMP1"> F  </i>
   <i type="logical" name="LMP2LT"> F  </i>
   <i type="logical" name="LSMP2LT"> F  </i>
   <i type="logical" name="LGWLF"> F  </i>
   <i name="ENCUTGW">     -2.00000000</i>
   <i name="ENCUTGWSOFT">     -2.00000000</i>
   <i name="ENCUTLF">     -1.00000000</i>
   <i type="logical" name="LESF_SPLINES"> F  </i>
   <i type="int" name="LMAXMP2">    -1</i>
   <i name="SCISSOR">      0.00000000</i>
   <i type="int" name="NOMEGA">     0</i>
   <i type="int" name="NOMEGAR">     0</i>
   <i type="int" name="NBANDSGW">    -1</i>
   <i type="int" name="NBANDSO">    -1</i>
   <i type="int" name="NBANDSV">    -1</i>
   <i type="int" name="NELM">   200</i>
   <i type="int" name="NELMHF">     1</i>
   <i type="int" name="DIM">     3</i>
   <i type="int" name="IESPILON">     4</i>
   <i type="int" name="ANTIRES">     0</i>
   <i name="OMEGAMAX">    -30.00000000</i>
   <i name="OMEGAMIN">    -30.00000000</i>
   <i name="OMEGATL">   -200.00000000</i>
   <i type="int" name="OMEGAGRID">     0</i>
   <i name="CSHIFT">     -0.10000000</i>
   <i type="logical" name="LSELFENERGY"> F  </i>
   <i type="logical" name="LSPECTRAL"> F  </i>
   <i type="logical" name="LSPECTRALGW"> F  </i>
   <i type="logical" name="LSINGLES"> F  </i>
   <i type="logical" name="LFERMIGW"> F  </i>
   <i type="logical" name="ODDONLYGW"> F  </i>
   <i type="logical" name="EVENONLYGW"> F  </i>
   <i type="int" name="NKREDLFX">     1</i>
   <i type="int" name="NKREDLFY">     1</i>
   <i type="int" name="NKREDLFZ">     1</i>
   <i type="int" name="MAXMEM">  2800</i>
   <i type="int" name="TELESCOPE">     0</i>
   <i type="int" name="NTAUPAR">    -1</i>
   <i type="int" name="NOMEGAPAR">    -1</i>
   <i name="DAMP_NEWTON">      0.80000001</i>
   <i name="LAMBDA">      1.00000000</i>
  </separator>
  <separator name="External order field" >
   <i name="OFIELD_KAPPA">      0.00000000</i>
   <v name="OFIELD_K">      0.00000000      0.00000000      0.00000000</v>
   <i name="OFIELD_Q6_NEAR">      0.00000000</i>
   <i name="OFIELD_Q6_FAR">      0.00000000</i>
   <i name="OFIELD_A">      0.00000000</i>
  </separator>
 </parameters>
 <atominfo>
  <atoms>      12 </atoms>
  <types>       2 </types>
  <array name="atoms" >
   <dimension dim="1">ion</dimension>
   <field type="string">element</field>
   <field type="int">atomtype</field>
   <set>
    <rc><c>C </c><c>   1</c></rc>
    <rc><c>C </c><c>   1</c></rc>
    <rc><c>C </c><c>   1</c></rc>
    <rc><c>C </c><c>   1</c></rc>
    <rc><c>C </c><c>   1</c></rc>
    <rc><c>C </c><c>   1</c></rc>
    <rc><c>H </c><c>   2</c></rc>
    <rc><c>H </c><c>   2</c></rc>
    <rc><c>H </c><c>   2</c></rc>
    <rc><c>H </c><c>   2</c></rc>
    <rc><c>H </c><c>   2</c></rc>
    <rc><c>H </c><c>   2</c></rc>
   </set>
  </array>
  <array name="atomtypes" >
   <dimension dim="1">type</dimension>
   <field type="int">atomspertype</field>
   <field type="string">element</field>
   <field>mass</field>
   <field>valence</field>
   <field type="string">pseudopotential</field>
   <set>
    <rc><c>   6</c><c>C </c><c>     12.01100000</c><c>      4.00000000</c><c>  PAW_PBE C 08Apr2002                   </c></rc>
    <rc><c>   6</c><c>H </c><c>      1.00000000</c><c>      1.00000000</c><c>  PAW_PBE H 15Jun2001                   </c></rc>
   </set>
  </array>
 </atominfo>
 <structure name="initialpos" >
  <crystal>
   <varray name="basis" >
    <v>      10.58354422       0.00000000       0.00000000 </v>
    <v>       0.00000000      10.58354422       0.00000000 </v>
    <v>       0.00000000       0.00000000      10.58354422 </v>
   </varray>
   <i name="volume">   1185.47769178 </i>
   <varray name="rec_basis" >
    <v>       0.09448631       0.00000000       0.00000000 </v>
    <v>       0.00000000       0.09448631       0.00000000 </v>
    <v>       0.00000000       0.00000000       0.09448631 </v>
   </varray>
  </crystal>
  <varray name="positions" >
   <v>       0.50020560       0.62819815       0.50461530 </v>
   <v>       0.38788340       0.56322090       0.50500305 </v>
   <v>       0.38149640       0.43884060       0.49368140 </v>
   <v>       0.49618265       0.37219085       0.50239260 </v>
   <v>       0.61841025       0.43320810       0.49872585 </v>
   <v>       0.61426840       0.56484000       0.50146635 </v>
   <v>       0.49284210       0.73831450       0.50142345 </v>
   <v>       0.30041490       0.61016675       0.49791385 </v>
   <v>       0.29974045       0.38106980       0.49429925 </v>
   <v>       0.49851035       0.27872350       0.50917820 </v>
   <v>       0.70461110       0.37875185       0.49488160 </v>
   <v>       0.70543430       0.61247490       0.49641925 </v>
  </varray>
 </structure>
 <calculation>
  <scstep>
   <time name="dav">    0.23    0.23</time>
   <time name="total">    0.50    0.50</time>
   <energy>
    <i name="alphaZ">      3.48814018 </i>
    <i name="ewald">   1157.08716403 </i>
    <i name="hartreedc">  -1784.27463751 </i>
    <i name="XCdc">     91.67916541 </i>
    <i name="pawpsdc">    663.93644290 </i>
    <i name="pawaedc">   -667.40614445 </i>
    <i name="eentropy">     -0.00000000 </i>
    <i name="bandstr">   -202.49069361 </i>
    <i name="atom">    957.82965714 </i>
    <i name="e_fr_energy">    219.84909408 </i>
    <i name="e_wo_entrp">    219.84909408 </i>
    <i name="e_0_energy">    219.84909408 </i>
   </energy>
  </scstep>
  <scstep>
   <time name="dav">    0.27    0.27</time>
   <time name="total">    0.27    0.27</time>
   <energy>
    <i name="e_fr_energy">     -2.05836890 </i>
    <i name="e_wo_entrp">     -2.05836890 </i>
    <i name="e_0_energy">     -2.05836890 </i>
   </energy>
  </scstep>
  <scstep>
   <time name="dav">    0.22    0.23</time>
   <time name="total">    0.22    0.23</time>
   <energy>
    <i name="e_fr_energy">    -78.23259951 </i>
    <i name="e_wo_entrp">    -78.23259951 </i>
    <i name="e_0_energy">    -78.23259951 </i>
   </energy>
  </scstep>
  <scstep>
   <time name="dav">    0.20    0.20</time>
   <time name="total">    0.20    0.20</time>
   <energy>
    <i name="e_fr_energy">    -84.03706755 </i>
    <i name="e_wo_entrp">    -84.03706755 </i>
    <i name="e_0_energy">    -84.03706755 </i>
   </energy>
  </scstep>
  <scstep>
   <time name="dav">    0.27    0.27</time>
   <time name="total">    0.31    0.31</time>
   <energy>
    <i name="e_fr_energy">    -84.15456140 </i>
    <i name="e_wo_entrp">    -84.15456140 </i>
    <i name="e_0_energy">    -84.15456140 </i>
   </energy>
  </scstep>
  <scstep>
   <time name="dav">    0.22    0.23</time>
   <time name="total">    0.54    0.54</time>
   <energy>
    <i name="e_fr_energy">    -77.35743938 </i>
    <i name="e_wo_entrp">    -77.35743938 </i>
    <i name="e_0_energy">    -77.35743938 </i>
   </energy>
  </scstep>
  <scstep>
   <time name="dav">    0.27    0.27</time>
   <time name="total">    0.57    0.58</time>
   <energy>
    <i name="e_fr_energy">    -75.43683772 </i>
    <i name="e_wo_entrp">    -75.43683772 </i>
    <i name="e_0_energy">    -75.43683772 </i>
   </energy>
  </scstep>
  <scstep>
   <time name="dav">    0.24    0.25</time>
   <time name="total">    0.55    0.55</time>
   <energy>
    <i name="e_fr_energy">    -75.25609293 </i>
    <i name="e_wo_entrp">    -75.25609293 </i>
    <i name="e_0_energy">    -75.25609293 </i>
   </energy>
  </scstep>
  <scstep>
   <time name="dav">    0.25    0.25</time>
   <time name="total">    0.55    0.55</time>
   <energy>
    <i name="e_fr_energy">    -75.22348325 </i>
    <i name="e_wo_entrp">    -75.22348325 </i>
    <i name="e_0_energy">    -75.22348325 </i>
   </energy>
  </scstep>
  <scstep>
   <time name="dav">    0.27    0.27</time>
   <time name="total">    0.57    0.58</time>
   <energy>
    <i name="e_fr_energy">    -75.21774937 </i>
    <i name="e_wo_entrp">    -75.21774937 </i>
    <i name="e_0_energy">    -75.21774937 </i>
   </energy>
  </scstep>
  <scstep>
   <time name="dav">    0.20    0.20</time>
   <time name="total">    0.51    0.52</time>
   <energy>
    <i name="e_fr_energy">    -75.21106587 </i>
    <i name="e_wo_entrp">    -75.21106587 </i>
    <i name="e_0_energy">    -75.21106587 </i>
   </energy>
  </scstep>
  <scstep>
   <time name="dav">    0.22    0.22</time>
   <time name="total">    0.51    0.51</time>
   <energy>
    <i name="e_fr_energy">    -75.21338191 </i>
    <i name="e_wo_entrp">    -75.21338191 </i>
    <i name="e_0_energy">    -75.21338191 </i>
   </energy>
  </scstep>
  <scstep>
   <time name="dav">    0.24    0.24</time>
   <time name="total">    0.53    0.53</time>
   <energy>
    <i name="e_fr_energy">    -75.22317594 </i>
    <i name="e_wo_entrp">    -75.22317594 </i>
    <i name="e_0_energy">    -75.22317594 </i>
   </energy>
  </scstep>
  <scstep>
   <time name="dav">    0.22    0.22</time>
   <time name="total">    0.51    0.51</time>
   <energy>
    <i name="e_fr_energy">    -75.22927982 </i>
    <i name="e_wo_entrp">    -75.22927982 </i>
    <i name="e_0_energy">    -75.22927982 </i>
   </energy>
  </scstep>
  <scstep>
   <time name="dav">    0.22    0.22</time>
   <time name="total">    0.50    0.51</time>
   <energy>
    <i name="e_fr_energy">    -75.23387024 </i>
    <i name="e_wo_entrp">    -75.23387024 </i>
    <i name="e_0_energy">    -75.23387024 </i>
   </energy>
  </scstep>
  <scstep>
   <time name="dav">    0.25    0.25</time>
   <time name="total">    0.53    0.53</time>
   <energy>
    <i name="e_fr_energy">    -75.23528798 </i>
    <i name="e_wo_entrp">    -75.23528798 </i>
    <i name="e_0_energy">    -75.23528798 </i>
   </energy>
  </scstep>
  <scstep>
   <time name="dav">    0.23    0.23</time>
   <time name="total">    0.52    0.52</time>
   <energy>
    <i name="e_fr_energy">    -75.23601334 </i>
    <i name="e_wo_entrp">    -75.23601334 </i>
    <i name="e_0_energy">    -75.23601334 </i>
   </energy>
  </scstep>
  <scstep>
   <time name="dav">    0.24    0.25</time>
   <time name="total">    0.53    0.54</time>
   <energy>
    <i name="e_fr_energy">    -75.23614862 </i>
    <i name="e_wo_entrp">    -75.23614862 </i>
    <i name="e_0_energy">    -75.23614862 </i>
   </energy>
  </scstep>
  <scstep>
   <time name="dav">    0.22    0.22</time>
   <time name="total">    0.51    0.51</time>
   <energy>
    <i name="e_fr_energy">    -75.23619981 </i>
    <i name="e_wo_entrp">    -75.23619981 </i>
    <i name="e_0_energy">    -75.23619981 </i>
   </energy>
  </scstep>
  <scstep>
   <time name="dav">    0.20    0.20</time>
   <time name="total">    0.49    0.49</time>
   <energy>
    <i name="e_fr_energy">    -75.23621480 </i>
    <i name="e_wo_entrp">    -75.23621480 </i>
    <i name="e_0_energy">    -75.23621480 </i>
   </energy>
  </scstep>
  <scstep>
   <time name="dav">    0.20    0.20</time>
   <time name="total">    0.50    0.50</time>
   <energy>
    <i name="e_fr_energy">    -75.23622065 </i>
    <i name="e_wo_entrp">    -75.23622065 </i>
    <i name="e_0_energy">    -75.23622065 </i>
   </energy>
  </scstep>
  <scstep>
   <time name="dav">    0.23    0.23</time>
   <time name="total">    0.52    0.53</time>
   <energy>
    <i name="e_fr_energy">    -75.23622187 </i>
    <i name="e_wo_entrp">    -75.23622187 </i>
    <i name="e_0_energy">    -75.23622187 </i>
   </energy>
  </scstep>
  <scstep>
   <time name="dav">    0.18    0.18</time>
   <time name="total">    0.44    0.45</time>
   <energy>
    <i name="alphaZ">      3.48814018 </i>
    <i name="ewald">   1157.08716403 </i>
    <i name="hartreedc">  -1936.76611182 </i>
    <i name="XCdc">     98.82083415 </i>
    <i name="pawpsdc">   2621.75826823 </i>
    <i name="pawaedc">  -2626.07614439 </i>
    <i name="eentropy">     -0.00000000 </i>
    <i name="bandstr">   -351.37802981 </i>
    <i name="atom">    957.82965714 </i>
    <i name="e_fr_energy">    -75.23622229 </i>
    <i name="e_wo_entrp">    -75.23622229 </i>
    <i name="e_0_energy">    -75.23622229 </i>
   </energy>
  </scstep>
  <structure>
   <crystal>
    <varray name="basis" >
     <v>      10.58354422       0.00000000       0.00000000 </v>
     <v>       0.00000000      10.58354422       0.00000000 </v>
     <v>       0.00000000       0.00000000      10.58354422 </v>
    </varray>
    <i name="volume">   1185.47769178 </i>
    <varray name="rec_basis" >
     <v>       0.09448631       0.00000000       0.00000000 </v>
     <v>       0.00000000       0.09448631       0.00000000 </v>
     <v>       0.00000000       0.00000000       0.09448631 </v>
    </varray>
   </crystal>
   <varray name="positions" >
    <v>       0.50020560       0.62819815       0.50461530 </v>
    <v>       0.38788340       0.56322090       0.50500305 </v>
    <v>       0.38149640       0.43884060       0.49368140 </v>
    <v>       0.49618265       0.37219085       0.50239260 </v>
    <v>       0.61841025       0.43320810       0.49872585 </v>
    <v>       0.61426840       0.56484000       0.50146635 </v>
    <v>       0.49284210       0.73831450       0.50142345 </v>
    <v>       0.30041490       0.61016675       0.49791385 </v>
    <v>       0.29974045       0.38106980       0.49429925 </v>
    <v>       0.49851035       0.27872350       0.50917820 </v>
    <v>       0.70461110       0.37875185       0.49488160 </v>
    <v>       0.70543430       0.61247490       0.49641925 </v>
   </varray>
  </structure>
  <varray name="forces" >
   <v>       0.16145179       2.96905617       0.02213548 </v>
   <v>      -0.76161277       2.23735569      -0.65685092 </v>
   <v>       2.35493279      -3.58707560       0.86635577 </v>
   <v>       1.87016511       3.86480425      -0.73640163 </v>
   <v>      -2.99260170      -0.17367599       0.33067638 </v>
   <v>       1.30755874      -0.17373883      -0.30213391 </v>
   <v>       0.45086038      -2.01529557       0.19143242 </v>
   <v>      -1.11318607       1.20697525       0.15287929 </v>
   <v>      -1.23387950      -0.19751165      -0.10820798 </v>
   <v>      -0.20482625      -4.46280203       0.08723940 </v>
   <v>       0.26307251      -0.10605798       0.10094808 </v>
   <v>      -0.10193505       0.43796629       0.05192762 </v>
  </varray>
  <varray name="stress" >
   <v>       1.06070469       0.11079882      -0.00896652 </v>
   <v>       0.11079881      13.64101467       0.15006957 </v>
   <v>      -0.00896653       0.15006957      -0.33205446 </v>
  </varray>
  <energy>
   <i name="e_fr_energy">    -75.23622229 </i>
   <i name="e_wo_entrp">    -75.23622229 </i>
   <i name="e_0_energy">    -75.23622229 </i>
  </energy>
  <time name="totalsc">   16.21   16.42</time>
  <eigenvalues>
   <array>
    <dimension dim="1">band</dimension>
    <dimension dim="2">kpoint</dimension>
    <dimension dim="3">spin</dimension>
    <field>eigene</field>
    <field>occ</field>
    <set>
     <set comment="spin 1">
      <set comment="kpoint 1">
       <r>  -20.9523    1.0000 </r>
       <r>  -18.2929    1.0000 </r>
       <r>  -17.8901    1.0000 </r>
       <r>  -14.5715    1.0000 </r>
       <r>  -14.3867    1.0000 </r>
       <r>  -12.5812    1.0000 </r>
       <r>  -10.9271    1.0000 </r>
       <r>  -10.4792    1.0000 </r>
       <r>  -10.0667    1.0000 </r>
       <r>   -9.5276    1.0000 </r>
       <r>   -8.7393    1.0000 </r>
       <r>   -7.7900    1.0000 </r>
       <r>   -7.6359    1.0000 </r>
       <r>   -6.1211    1.0000 </r>
       <r>   -5.7277    1.0000 </r>
       <r>   -0.9153    0.0000 </r>
       <r>   -0.6819    0.0000 </r>
       <r>   -0.4253    0.0000 </r>
       <r>    0.7265    0.0000 </r>
       <r>    0.8274    0.0000 </r>
       <r>    0.8759    0.0000 </r>
       <r>    0.9134    0.0000 </r>
       <r>    0.9890    0.0000 </r>
       <r>    1.4413    0.0000 </r>
      </set>
     </set>
    </set>
   </array>
  </eigenvalues>
  <separator name="orbital magnetization" >
   <v name="MAGDIPOLOUT">      0.00000000      0.00000000      0.00000000</v>
  </separator>
  <dos>
   <i name="efermi">     -5.47555079 </i>
   <total>
    <array>
     <dimension dim="1">gridpoints</dimension>
     <dimension dim="2">spin</dimension>
     <field>energy</field>
     <field>total</field>
     <field>integrated</field>
     <set>
      <set comment="spin 1">
       <r>   -22.0720     0.0000     0.0000 </r>
       <r>   -21.9899     0.0000     0.0000 </r>
       <r>   -21.9078     0.0000     0.0000 </r>
       <r>   -21.8257     0.0000     0.0000 </r>
       <r>   -21.7436     0.0000     0.0000 </r>
       <r>   -21.6615     0.0000     0.0000 </r>
       <r>   -21.5794     0.0000     0.0000 </r>
       <r>   -21.4972     0.0000     0.0000 </r>
       <r>   -21.4151     0.0000     0.0000 </r>
       <r>   -21.3330     0.0000     0.0000 </r>
       <r>   -21.2509     0.0000     0.0000 </r>
       <r>   -21.1688     0.0000     0.0000 </r>
       <r>   -21.0867     0.0018     0.0001 </r>
       <r>   -21.0046     1.6964     0.1394 </r>
       <r>   -20.9225    17.8077     1.6016 </r>
       <r>   -20.8404     4.8330     1.9985 </r>
       <r>   -20.7583     0.0188     2.0000 </r>
       <r>   -20.6761     0.0000     2.0000 </r>
       <r>   -20.5940     0.0000     2.0000 </r>
       <r>   -20.5119     0.0000     2.0000 </r>
       <r>   -20.4298     0.0000     2.0000 </r>
       <r>   -20.3477     0.0000     2.0000 </r>
       <r>   -20.2656     0.0000     2.0000 </r>
       <r>   -20.1835     0.0000     2.0000 </r>
       <r>   -20.1014     0.0000     2.0000 </r>
       <r>   -20.0193     0.0000     2.0000 </r>
       <r>   -19.9372     0.0000     2.0000 </r>
       <r>   -19.8551     0.0000     2.0000 </r>
       <r>   -19.7729     0.0000     2.0000 </r>
       <r>   -19.6908     0.0000     2.0000 </r>
       <r>   -19.6087     0.0000     2.0000 </r>
       <r>   -19.5266     0.0000     2.0000 </r>
       <r>   -19.4445     0.0000     2.0000 </r>
       <r>   -19.3624     0.0000     2.0000 </r>
       <r>   -19.2803     0.0000     2.0000 </r>
       <r>   -19.1982     0.0000     2.0000 </r>
       <r>   -19.1161     0.0000     2.0000 </r>
       <r>   -19.0340     0.0000     2.0000 </r>
       <r>   -18.9518     0.0000     2.0000 </r>
       <r>   -18.8697     0.0000     2.0000 </r>
       <r>   -18.7876     0.0000     2.0000 </r>
       <r>   -18.7055     0.0000     2.0000 </r>
       <r>   -18.6234     0.0000     2.0000 </r>
       <r>   -18.5413     0.0000     2.0000 </r>
       <r>   -18.4592     0.0000     2.0000 </r>
       <r>   -18.3771     0.2101     2.0173 </r>
       <r>   -18.2950    11.3968     2.9530 </r>
       <r>   -18.2129    12.4632     3.9764 </r>
       <r>   -18.1307     0.2874     4.0000 </r>
       <r>   -18.0486     0.0001     4.0000 </r>
       <r>   -17.9665     0.3719     4.0305 </r>
       <r>   -17.8844    13.3499     5.1267 </r>
       <r>   -17.8023    10.4765     5.9869 </r>
       <r>   -17.7202     0.1591     6.0000 </r>
       <r>   -17.6381     0.0000     6.0000 </r>
       <r>   -17.5560     0.0000     6.0000 </r>
       <r>   -17.4739     0.0000     6.0000 </r>
       <r>   -17.3918     0.0000     6.0000 </r>
       <r>   -17.3096     0.0000     6.0000 </r>
       <r>   -17.2275     0.0000     6.0000 </r>
       <r>   -17.1454     0.0000     6.0000 </r>
       <r>   -17.0633     0.0000     6.0000 </r>
       <r>   -16.9812     0.0000     6.0000 </r>
       <r>   -16.8991     0.0000     6.0000 </r>
       <r>   -16.8170     0.0000     6.0000 </r>
       <r>   -16.7349     0.0000     6.0000 </r>
       <r>   -16.6528     0.0000     6.0000 </r>
       <r>   -16.5707     0.0000     6.0000 </r>
       <r>   -16.4885     0.0000     6.0000 </r>
       <r>   -16.4064     0.0000     6.0000 </r>
       <r>   -16.3243     0.0000     6.0000 </r>
       <r>   -16.2422     0.0000     6.0000 </r>
       <r>   -16.1601     0.0000     6.0000 </r>
       <r>   -16.0780     0.0000     6.0000 </r>
       <r>   -15.9959     0.0000     6.0000 </r>
       <r>   -15.9138     0.0000     6.0000 </r>
       <r>   -15.8317     0.0000     6.0000 </r>
       <r>   -15.7496     0.0000     6.0000 </r>
       <r>   -15.6674     0.0000     6.0000 </r>
       <r>   -15.5853     0.0000     6.0000 </r>
       <r>   -15.5032     0.0000     6.0000 </r>
       <r>   -15.4211     0.0000     6.0000 </r>
       <r>   -15.3390     0.0000     6.0000 </r>
       <r>   -15.2569     0.0000     6.0000 </r>
       <r>   -15.1748     0.0000     6.0000 </r>
       <r>   -15.0927     0.0000     6.0000 </r>
       <r>   -15.0106     0.0000     6.0000 </r>
       <r>   -14.9285     0.0000     6.0000 </r>
       <r>   -14.8463     0.0000     6.0000 </r>
       <r>   -14.7642     0.0000     6.0000 </r>
       <r>   -14.6821     0.0214     6.0018 </r>
       <r>   -14.6000     5.0926     6.4199 </r>
       <r>   -14.5179    17.6682     7.8706 </r>
       <r>   -14.4358     3.5840     8.1649 </r>
       <r>   -14.3537    18.0835     9.6498 </r>
       <r>   -14.2716     4.2517     9.9989 </r>
       <r>   -14.1895     0.0137    10.0000 </r>
       <r>   -14.1074     0.0000    10.0000 </r>
       <r>   -14.0252     0.0000    10.0000 </r>
       <r>   -13.9431     0.0000    10.0000 </r>
       <r>   -13.8610     0.0000    10.0000 </r>
       <r>   -13.7789     0.0000    10.0000 </r>
       <r>   -13.6968     0.0000    10.0000 </r>
       <r>   -13.6147     0.0000    10.0000 </r>
       <r>   -13.5326     0.0000    10.0000 </r>
       <r>   -13.4505     0.0000    10.0000 </r>
       <r>   -13.3684     0.0000    10.0000 </r>
       <r>   -13.2863     0.0000    10.0000 </r>
       <r>   -13.2041     0.0000    10.0000 </r>
       <r>   -13.1220     0.0000    10.0000 </r>
       <r>   -13.0399     0.0000    10.0000 </r>
       <r>   -12.9578     0.0000    10.0000 </r>
       <r>   -12.8757     0.0000    10.0000 </r>
       <r>   -12.7936     0.0000    10.0000 </r>
       <r>   -12.7115     0.0028    10.0002 </r>
       <r>   -12.6294     2.1086    10.1734 </r>
       <r>   -12.5473    18.1471    11.6634 </r>
       <r>   -12.4652     4.0866    11.9990 </r>
       <r>   -12.3830     0.0125    12.0000 </r>
       <r>   -12.3009     0.0000    12.0000 </r>
       <r>   -12.2188     0.0000    12.0000 </r>
       <r>   -12.1367     0.0000    12.0000 </r>
       <r>   -12.0546     0.0000    12.0000 </r>
       <r>   -11.9725     0.0000    12.0000 </r>
       <r>   -11.8904     0.0000    12.0000 </r>
       <r>   -11.8083     0.0000    12.0000 </r>
       <r>   -11.7262     0.0000    12.0000 </r>
       <r>   -11.6441     0.0000    12.0000 </r>
       <r>   -11.5619     0.0000    12.0000 </r>
       <r>   -11.4798     0.0000    12.0000 </r>
       <r>   -11.3977     0.0000    12.0000 </r>
       <r>   -11.3156     0.0000    12.0000 </r>
       <r>   -11.2335     0.0000    12.0000 </r>
       <r>   -11.1514     0.0000    12.0000 </r>
       <r>   -11.0693     0.0007    12.0001 </r>
       <r>   -10.9872     1.0839    12.0891 </r>
       <r>   -10.9051    16.7704    13.4661 </r>
       <r>   -10.8230     6.4631    13.9968 </r>
       <r>   -10.7408     0.0394    14.0000 </r>
       <r>   -10.6587     0.0000    14.0000 </r>
       <r>   -10.5766     0.0711    14.0058 </r>
       <r>   -10.4945     8.0169    14.6641 </r>
       <r>   -10.4124    15.5509    15.9410 </r>
       <r>   -10.3303     0.7183    16.0000 </r>
       <r>   -10.2482     0.0003    16.0000 </r>
       <r>   -10.1661     0.0599    16.0049 </r>
       <r>   -10.0840     7.5443    16.6244 </r>
       <r>   -10.0019    15.9394    17.9332 </r>
       <r>    -9.9198     0.8136    18.0000 </r>
       <r>    -9.8376     0.0004    18.0000 </r>
       <r>    -9.7555     0.0000    18.0000 </r>
       <r>    -9.6734     0.0005    18.0000 </r>
       <r>    -9.5913     0.8688    18.0714 </r>
       <r>    -9.5092    16.1381    19.3965 </r>
       <r>    -9.4271     7.2957    19.9955 </r>
       <r>    -9.3450     0.0546    20.0000 </r>
       <r>    -9.2629     0.0000    20.0000 </r>
       <r>    -9.1808     0.0000    20.0000 </r>
       <r>    -9.0987     0.0000    20.0000 </r>
       <r>    -9.0165     0.0000    20.0000 </r>
       <r>    -8.9344     0.0000    20.0000 </r>
       <r>    -8.8523     0.0169    20.0014 </r>
       <r>    -8.7702     4.6306    20.3816 </r>
       <r>    -8.6881    17.9105    21.8522 </r>
       <r>    -8.6060     1.7976    21.9998 </r>
       <r>    -8.5239     0.0020    22.0000 </r>
       <r>    -8.4418     0.0000    22.0000 </r>
       <r>    -8.3597     0.0000    22.0000 </r>
       <r>    -8.2776     0.0000    22.0000 </r>
       <r>    -8.1954     0.0000    22.0000 </r>
       <r>    -8.1133     0.0000    22.0000 </r>
       <r>    -8.0312     0.0000    22.0000 </r>
       <r>    -7.9491     0.0001    22.0000 </r>
       <r>    -7.8670     0.3575    22.0294 </r>
       <r>    -7.7849    13.2142    23.1144 </r>
       <r>    -7.7028    11.3304    24.0447 </r>
       <r>    -7.6207    15.6831    25.3325 </r>
       <r>    -7.5386     8.0577    25.9941 </r>
       <r>    -7.4565     0.0721    26.0000 </r>
       <r>    -7.3743     0.0000    26.0000 </r>
       <r>    -7.2922     0.0000    26.0000 </r>
       <r>    -7.2101     0.0000    26.0000 </r>
       <r>    -7.1280     0.0000    26.0000 </r>
       <r>    -7.0459     0.0000    26.0000 </r>
       <r>    -6.9638     0.0000    26.0000 </r>
       <r>    -6.8817     0.0000    26.0000 </r>
       <r>    -6.7996     0.0000    26.0000 </r>
       <r>    -6.7175     0.0000    26.0000 </r>
       <r>    -6.6354     0.0000    26.0000 </r>
       <r>    -6.5532     0.0000    26.0000 </r>
       <r>    -6.4711     0.0000    26.0000 </r>
       <r>    -6.3890     0.0000    26.0000 </r>
       <r>    -6.3069     0.0000    26.0000 </r>
       <r>    -6.2248     0.0407    26.0033 </r>
       <r>    -6.1427     6.5435    26.5406 </r>
       <r>    -6.0606    16.7119    27.9128 </r>
       <r>    -5.9785     1.0609    27.9999 </r>
       <r>    -5.8964     0.0007    28.0000 </r>
       <r>    -5.8143     0.1745    28.0143 </r>
       <r>    -5.7321    10.7786    28.8994 </r>
       <r>    -5.6500    13.0623    29.9719 </r>
       <r>    -5.5679     0.3421    30.0000 </r>
       <r>    -5.4858     0.0001    30.0000 </r>
       <r>    -5.4037     0.0000    30.0000 </r>
       <r>    -5.3216     0.0000    30.0000 </r>
       <r>    -5.2395     0.0000    30.0000 </r>
       <r>    -5.1574     0.0000    30.0000 </r>
       <r>    -5.0753     0.0000    30.0000 </r>
       <r>    -4.9932     0.0000    30.0000 </r>
       <r>    -4.9110     0.0000    30.0000 </r>
       <r>    -4.8289     0.0000    30.0000 </r>
       <r>    -4.7468     0.0000    30.0000 </r>
       <r>    -4.6647     0.0000    30.0000 </r>
       <r>    -4.5826     0.0000    30.0000 </r>
       <r>    -4.5005     0.0000    30.0000 </r>
       <r>    -4.4184     0.0000    30.0000 </r>
       <r>    -4.3363     0.0000    30.0000 </r>
       <r>    -4.2542     0.0000    30.0000 </r>
       <r>    -4.1721     0.0000    30.0000 </r>
       <r>    -4.0899     0.0000    30.0000 </r>
       <r>    -4.0078     0.0000    30.0000 </r>
       <r>    -3.9257     0.0000    30.0000 </r>
       <r>    -3.8436     0.0000    30.0000 </r>
       <r>    -3.7615     0.0000    30.0000 </r>
       <r>    -3.6794     0.0000    30.0000 </r>
       <r>    -3.5973     0.0000    30.0000 </r>
       <r>    -3.5152     0.0000    30.0000 </r>
       <r>    -3.4331     0.0000    30.0000 </r>
       <r>    -3.3510     0.0000    30.0000 </r>
       <r>    -3.2688     0.0000    30.0000 </r>
       <r>    -3.1867     0.0000    30.0000 </r>
       <r>    -3.1046     0.0000    30.0000 </r>
       <r>    -3.0225     0.0000    30.0000 </r>
       <r>    -2.9404     0.0000    30.0000 </r>
       <r>    -2.8583     0.0000    30.0000 </r>
       <r>    -2.7762     0.0000    30.0000 </r>
       <r>    -2.6941     0.0000    30.0000 </r>
       <r>    -2.6120     0.0000    30.0000 </r>
       <r>    -2.5299     0.0000    30.0000 </r>
       <r>    -2.4477     0.0000    30.0000 </r>
       <r>    -2.3656     0.0000    30.0000 </r>
       <r>    -2.2835     0.0000    30.0000 </r>
       <r>    -2.2014     0.0000    30.0000 </r>
       <r>    -2.1193     0.0000    30.0000 </r>
       <r>    -2.0372     0.0000    30.0000 </r>
       <r>    -1.9551     0.0000    30.0000 </r>
       <r>    -1.8730     0.0000    30.0000 </r>
       <r>    -1.7909     0.0000    30.0000 </r>
       <r>    -1.7088     0.0000    30.0000 </r>
       <r>    -1.6266     0.0000    30.0000 </r>
       <r>    -1.5445     0.0000    30.0000 </r>
       <r>    -1.4624     0.0000    30.0000 </r>
       <r>    -1.3803     0.0000    30.0000 </r>
       <r>    -1.2982     0.0000    30.0000 </r>
       <r>    -1.2161     0.0000    30.0000 </r>
       <r>    -1.1340     0.0000    30.0000 </r>
       <r>    -1.0519     0.0014    30.0001 </r>
       <r>    -0.9698     1.4999    30.1233 </r>
       <r>    -0.8877    17.5626    31.5653 </r>
       <r>    -0.8055     5.2762    31.9986 </r>
       <r>    -0.7234     2.9413    32.2401 </r>
       <r>    -0.6413    18.3754    33.7489 </r>
       <r>    -0.5592     3.0540    33.9996 </r>
       <r>    -0.4771     1.7399    34.1425 </r>
       <r>    -0.3950    17.8472    35.6079 </r>
       <r>    -0.3129     4.7569    35.9985 </r>
       <r>    -0.2308     0.0180    36.0000 </r>
       <r>    -0.1487     0.0000    36.0000 </r>
       <r>    -0.0666     0.0000    36.0000 </r>
       <r>     0.0156     0.0000    36.0000 </r>
       <r>     0.0977     0.0000    36.0000 </r>
       <r>     0.1798     0.0000    36.0000 </r>
       <r>     0.2619     0.0000    36.0000 </r>
       <r>     0.3440     0.0000    36.0000 </r>
       <r>     0.4261     0.0000    36.0000 </r>
       <r>     0.5082     0.0000    36.0000 </r>
       <r>     0.5903     0.0014    36.0001 </r>
       <r>     0.6724     1.5380    36.1264 </r>
       <r>     0.7545    18.1001    37.6126 </r>
       <r>     0.8366    22.9935    39.5006 </r>
       <r>     0.9188    41.7977    42.9326 </r>
       <r>     1.0009    28.2214    45.2499 </r>
       <r>     1.0830     9.0403    45.9922 </r>
       <r>     1.1651     0.0954    46.0000 </r>
       <r>     1.2472     0.0000    46.0000 </r>
       <r>     1.3293     0.0188    46.0015 </r>
       <r>     1.4114     4.8330    46.3984 </r>
       <r>     1.4935    17.8077    47.8606 </r>
       <r>     1.5756     1.6964    47.9999 </r>
       <r>     1.6577     0.0018    48.0000 </r>
       <r>     1.7399     0.0000    48.0000 </r>
       <r>     1.8220     0.0000    48.0000 </r>
       <r>     1.9041     0.0000    48.0000 </r>
       <r>     1.9862     0.0000    48.0000 </r>
       <r>     2.0683     0.0000    48.0000 </r>
       <r>     2.1504     0.0000    48.0000 </r>
       <r>     2.2325     0.0000    48.0000 </r>
       <r>     2.3146     0.0000    48.0000 </r>
       <r>     2.3967     0.0000    48.0000 </r>
       <r>     2.4788     0.0000    48.0000 </r>
       <r>     2.5610     0.0000    48.0000 </r>
      </set>
     </set>
    </array>
   </total>
  </dos>
 </calculation>
 <structure name="finalpos" >
  <crystal>
   <varray name="basis" >
    <v>      10.58354422       0.00000000       0.00000000 </v>
    <v>       0.00000000      10.58354422       0.00000000 </v>
    <v>       0.00000000       0.00000000      10.58354422 </v>
   </varray>
   <i name="volume">   1185.47769178 </i>
   <varray name="rec_basis" >
    <v>       0.09448631       0.00000000       0.00000000 </v>
    <v>       0.00000000       0.09448631       0.00000000 </v>
    <v>       0.00000000       0.00000000       0.09448631 </v>
   </varray>
  </crystal>
  <varray name="positions" >
   <v>       0.50020560       0.62819815       0.50461530 </v>
   <v>       0.38788340       0.56322090       0.50500305 </v>
   <v>       0.38149640       0.43884060       0.49368140 </v>
   <v>       0.49618265       0.37219085       0.50239260 </v>
   <v>       0.61841025       0.43320810       0.49872585 </v>
   <v>       0.61426840       0.56484000       0.50146635 </v>
   <v>       0.49284210       0.73831450       0.50142345 </v>
   <v>       0.30041490       0.61016675       0.49791385 </v>
   <v>       0.29974045       0.38106980       0.49429925 </v>
   <v>       0.49851035       0.27872350       0.50917820 </v>
   <v>       0.70461110       0.37875185       0.49488160 </v>
   <v>       0.70543430       0.61247490       0.49641925 </v>
  </varray>
 </structure>
</modeling>
