<?xml version="1.0" encoding="ISO-8859-1"?>
<modeling>
 <generator>
  <i name="program" type="string">vasp </i>
  <i name="version" type="string">6.2.0  </i>
  <i name="subversion" type="string">18Jan21 (build Mar 25 2021 14:28:09) complex                          parallel </i>
  <i name="platform" type="string">LinuxGNU </i>
  <i name="date" type="string">2022 08 19 </i>
  <i name="time" type="string">10:00:52 </i>
 </generator>
 <incar>
  <i type="string" name="SYSTEM">al</i>
  <i type="int" name="ISTART">     0</i>
  <i type="string" name="PREC">Accurate</i>
  <i type="string" name="ALGO">Normal</i>
  <i type="int" name="NSIM">     8</i>
  <i type="int" name="NELM">   200</i>
  <i type="int" name="IBRION">    -1</i>
  <i name="EDIFF">      0.00000100</i>
  <i type="int" name="NSW">     0</i>
  <i name="ENCUT">    600.00000000</i>
  <i type="string" name="LREAL">Auto</i>
  <i type="int" name="ISMEAR">     0</i>
  <i name="SIGMA">      0.05000000</i>
  <i type="int" name="LMAXPAW">    -1</i>
  <i type="logical" name="LWAVE"> F  </i>
  <i type="logical" name="LCHARG"> T  </i>
  <i type="string" name="GGA">PE</i>
 </incar>
 <primitive_cell>
  <structure name="primitive_cell" >
   <crystal>
    <varray name="basis" >
     <v>       8.07809510       0.00000000       0.00000000 </v>
     <v>       0.00000000       8.07809510       0.00000000 </v>
     <v>       0.00000000       0.00000000       8.07809510 </v>
    </varray>
    <i name="volume">    527.14110776 </i>
    <varray name="rec_basis" >
     <v>       0.12379156       0.00000000       0.00000000 </v>
     <v>       0.00000000       0.12379156       0.00000000 </v>
     <v>       0.00000000       0.00000000       0.12379156 </v>
    </varray>
   </crystal>
   <varray name="positions" >
    <v>       0.99389905       0.99203693       0.99015171 </v>
    <v>       0.00915464       0.24692628       0.22759094 </v>
    <v>       0.23695143       0.99856832       0.23991513 </v>
    <v>       0.23441666       0.25653653       0.98248936 </v>
    <v>       0.00743772       0.00552965       0.49621553 </v>
    <v>       0.00464452       0.25975417       0.75481308 </v>
    <v>       0.25834747       0.00102437       0.74829122 </v>
    <v>       0.25304308       0.25421099       0.49573158 </v>
    <v>       0.99066248       0.51824749       0.98907317 </v>
    <v>       0.00018370       0.75062290       0.23712808 </v>
    <v>       0.27301584       0.49162761       0.24285146 </v>
    <v>       0.25273491       0.74191975       0.99929363 </v>
    <v>       0.01800958       0.50146084       0.48122436 </v>
    <v>       0.00327406       0.75159963       0.74147955 </v>
    <v>       0.24575060       0.48776406       0.73899636 </v>
    <v>       0.24417416       0.74681427       0.50616050 </v>
    <v>       0.49212162       0.98898721       0.99216401 </v>
    <v>       0.51210291       0.23296568       0.24604302 </v>
    <v>       0.74209055       0.96357963       0.23540490 </v>
    <v>       0.76866460       0.23507768       0.98715698 </v>
    <v>       0.49572604       0.99792805       0.51894742 </v>
    <v>       0.49721169       0.25544301       0.75874831 </v>
    <v>       0.73000987       0.01041439       0.75865311 </v>
    <v>       0.76052163       0.24277968       0.48288493 </v>
    <v>       0.49157190       0.49268651       0.01479815 </v>
    <v>       0.48787324       0.75557959       0.26189050 </v>
    <v>       0.75593902       0.50213109       0.26182508 </v>
    <v>       0.73960079       0.76124448       0.98929947 </v>
    <v>       0.51072884       0.51060590       0.51423075 </v>
    <v>       0.49766509       0.74499034       0.75257940 </v>
    <v>       0.73694444       0.50949697       0.76547285 </v>
    <v>       0.74614392       0.75881808       0.49789744 </v>
   </varray>
  </structure>
  <varray name="primitive_index" >
   <v type="int" >        1 </v>
   <v type="int" >        2 </v>
   <v type="int" >        3 </v>
   <v type="int" >        4 </v>
   <v type="int" >        5 </v>
   <v type="int" >        6 </v>
   <v type="int" >        7 </v>
   <v type="int" >        8 </v>
   <v type="int" >        9 </v>
   <v type="int" >       10 </v>
   <v type="int" >       11 </v>
   <v type="int" >       12 </v>
   <v type="int" >       13 </v>
   <v type="int" >       14 </v>
   <v type="int" >       15 </v>
   <v type="int" >       16 </v>
   <v type="int" >       17 </v>
   <v type="int" >       18 </v>
   <v type="int" >       19 </v>
   <v type="int" >       20 </v>
   <v type="int" >       21 </v>
   <v type="int" >       22 </v>
   <v type="int" >       23 </v>
   <v type="int" >       24 </v>
   <v type="int" >       25 </v>
   <v type="int" >       26 </v>
   <v type="int" >       27 </v>
   <v type="int" >       28 </v>
   <v type="int" >       29 </v>
   <v type="int" >       30 </v>
   <v type="int" >       31 </v>
   <v type="int" >       32 </v>
  </varray>
 </primitive_cell>
 <kpoints>
  <generation param="Gamma">
   <v type="int" name="divisions">       9        9        9 </v>
   <v name="usershift">      0.00000000       0.00000000       0.00000000 </v>
   <v name="genvec1">      0.11111111       0.00000000       0.00000000 </v>
   <v name="genvec2">      0.00000000       0.11111111       0.00000000 </v>
   <v name="genvec3">      0.00000000       0.00000000       0.11111111 </v>
   <v name="shift">      0.00000000       0.00000000       0.00000000 </v>
  </generation>
  <varray name="kpointlist" >
   <v>       0.00000000       0.00000000       0.00000000 </v>
   <v>       0.11111111       0.00000000       0.00000000 </v>
   <v>       0.00000000       0.11111111       0.00000000 </v>
   <v>       0.00000000       0.00000000       0.11111111 </v>
   <v>       0.22222222       0.00000000       0.00000000 </v>
   <v>       0.00000000       0.22222222       0.00000000 </v>
   <v>       0.00000000       0.00000000       0.22222222 </v>
   <v>       0.33333333       0.00000000       0.00000000 </v>
   <v>       0.00000000       0.33333333       0.00000000 </v>
   <v>       0.00000000       0.00000000       0.33333333 </v>
   <v>       0.44444444       0.00000000       0.00000000 </v>
   <v>       0.00000000       0.44444444       0.00000000 </v>
   <v>       0.00000000       0.00000000       0.44444444 </v>
   <v>       0.11111111       0.11111111       0.00000000 </v>
   <v>       0.00000000       0.11111111       0.11111111 </v>
   <v>       0.11111111       0.00000000       0.11111111 </v>
   <v>      -0.11111111       0.11111111       0.00000000 </v>
   <v>      -0.11111111       0.00000000       0.11111111 </v>
   <v>       0.00000000      -0.11111111       0.11111111 </v>
   <v>       0.22222222       0.11111111       0.00000000 </v>
   <v>       0.00000000       0.22222222       0.11111111 </v>
   <v>       0.11111111       0.00000000       0.22222222 </v>
   <v>      -0.11111111       0.22222222       0.00000000 </v>
   <v>      -0.22222222       0.00000000       0.11111111 </v>
   <v>       0.00000000       0.11111111       0.22222222 </v>
   <v>       0.00000000      -0.22222222       0.11111111 </v>
   <v>      -0.11111111       0.00000000       0.22222222 </v>
   <v>       0.22222222       0.00000000       0.11111111 </v>
   <v>       0.00000000      -0.11111111       0.22222222 </v>
   <v>       0.22222222      -0.11111111       0.00000000 </v>
   <v>       0.11111111       0.22222222       0.00000000 </v>
   <v>       0.33333333       0.11111111       0.00000000 </v>
   <v>       0.00000000       0.33333333       0.11111111 </v>
   <v>       0.11111111       0.00000000       0.33333333 </v>
   <v>      -0.11111111       0.33333333       0.00000000 </v>
   <v>      -0.33333333       0.00000000       0.11111111 </v>
   <v>       0.00000000       0.11111111       0.33333333 </v>
   <v>       0.00000000      -0.33333333       0.11111111 </v>
   <v>      -0.11111111       0.00000000       0.33333333 </v>
   <v>       0.33333333       0.00000000       0.11111111 </v>
   <v>       0.00000000      -0.11111111       0.33333333 </v>
   <v>       0.33333333      -0.11111111       0.00000000 </v>
   <v>       0.11111111       0.33333333       0.00000000 </v>
   <v>       0.44444444       0.11111111       0.00000000 </v>
   <v>       0.00000000       0.44444444       0.11111111 </v>
   <v>       0.11111111       0.00000000       0.44444444 </v>
   <v>      -0.11111111       0.44444444       0.00000000 </v>
   <v>      -0.44444444       0.00000000       0.11111111 </v>
   <v>       0.00000000       0.11111111       0.44444444 </v>
   <v>       0.00000000      -0.44444444       0.11111111 </v>
   <v>      -0.11111111       0.00000000       0.44444444 </v>
   <v>       0.44444444       0.00000000       0.11111111 </v>
   <v>       0.00000000      -0.11111111       0.44444444 </v>
   <v>       0.44444444      -0.11111111       0.00000000 </v>
   <v>       0.11111111       0.44444444       0.00000000 </v>
   <v>       0.22222222       0.22222222       0.00000000 </v>
   <v>       0.00000000       0.22222222       0.22222222 </v>
   <v>       0.22222222       0.00000000       0.22222222 </v>
   <v>      -0.22222222       0.22222222       0.00000000 </v>
   <v>      -0.22222222       0.00000000       0.22222222 </v>
   <v>       0.00000000      -0.22222222       0.22222222 </v>
   <v>       0.33333333       0.22222222       0.00000000 </v>
   <v>       0.00000000       0.33333333       0.22222222 </v>
   <v>       0.22222222       0.00000000       0.33333333 </v>
   <v>      -0.22222222       0.33333333       0.00000000 </v>
   <v>      -0.33333333       0.00000000       0.22222222 </v>
   <v>       0.00000000       0.22222222       0.33333333 </v>
   <v>       0.00000000      -0.33333333       0.22222222 </v>
   <v>      -0.22222222       0.00000000       0.33333333 </v>
   <v>       0.33333333       0.00000000       0.22222222 </v>
   <v>       0.00000000      -0.22222222       0.33333333 </v>
   <v>       0.33333333      -0.22222222       0.00000000 </v>
   <v>       0.22222222       0.33333333       0.00000000 </v>
   <v>       0.44444444       0.22222222       0.00000000 </v>
   <v>       0.00000000       0.44444444       0.22222222 </v>
   <v>       0.22222222       0.00000000       0.44444444 </v>
   <v>      -0.22222222       0.44444444       0.00000000 </v>
   <v>      -0.44444444       0.00000000       0.22222222 </v>
   <v>       0.00000000       0.22222222       0.44444444 </v>
   <v>       0.00000000      -0.44444444       0.22222222 </v>
   <v>      -0.22222222       0.00000000       0.44444444 </v>
   <v>       0.44444444       0.00000000       0.22222222 </v>
   <v>       0.00000000      -0.22222222       0.44444444 </v>
   <v>       0.44444444      -0.22222222       0.00000000 </v>
   <v>       0.22222222       0.44444444       0.00000000 </v>
   <v>       0.33333333       0.33333333       0.00000000 </v>
   <v>       0.00000000       0.33333333       0.33333333 </v>
   <v>       0.33333333       0.00000000       0.33333333 </v>
   <v>      -0.33333333       0.33333333       0.00000000 </v>
   <v>      -0.33333333       0.00000000       0.33333333 </v>
   <v>       0.00000000      -0.33333333       0.33333333 </v>
   <v>       0.44444444       0.33333333       0.00000000 </v>
   <v>       0.00000000       0.44444444       0.33333333 </v>
   <v>       0.33333333       0.00000000       0.44444444 </v>
   <v>      -0.33333333       0.44444444       0.00000000 </v>
   <v>      -0.44444444       0.00000000       0.33333333 </v>
   <v>       0.00000000       0.33333333       0.44444444 </v>
   <v>       0.00000000      -0.44444444       0.33333333 </v>
   <v>      -0.33333333       0.00000000       0.44444444 </v>
   <v>       0.44444444       0.00000000       0.33333333 </v>
   <v>       0.00000000      -0.33333333       0.44444444 </v>
   <v>       0.44444444      -0.33333333       0.00000000 </v>
   <v>       0.33333333       0.44444444       0.00000000 </v>
   <v>       0.44444444       0.44444444       0.00000000 </v>
   <v>       0.00000000       0.44444444       0.44444444 </v>
   <v>       0.44444444       0.00000000       0.44444444 </v>
   <v>      -0.44444444       0.44444444       0.00000000 </v>
   <v>      -0.44444444       0.00000000       0.44444444 </v>
   <v>       0.00000000      -0.44444444       0.44444444 </v>
   <v>       0.11111111       0.11111111       0.11111111 </v>
   <v>      -0.11111111       0.11111111       0.11111111 </v>
   <v>      -0.11111111      -0.11111111       0.11111111 </v>
   <v>       0.11111111      -0.11111111       0.11111111 </v>
   <v>       0.22222222       0.11111111       0.11111111 </v>
   <v>       0.11111111       0.22222222       0.11111111 </v>
   <v>       0.11111111       0.11111111       0.22222222 </v>
   <v>      -0.11111111       0.22222222       0.11111111 </v>
   <v>      -0.22222222       0.11111111       0.11111111 </v>
   <v>      -0.11111111       0.11111111       0.22222222 </v>
   <v>      -0.22222222      -0.11111111       0.11111111 </v>
   <v>      -0.11111111      -0.22222222       0.11111111 </v>
   <v>      -0.11111111      -0.11111111       0.22222222 </v>
   <v>       0.11111111      -0.22222222       0.11111111 </v>
   <v>       0.22222222      -0.11111111       0.11111111 </v>
   <v>       0.11111111      -0.11111111       0.22222222 </v>
   <v>       0.33333333       0.11111111       0.11111111 </v>
   <v>       0.11111111       0.33333333       0.11111111 </v>
   <v>       0.11111111       0.11111111       0.33333333 </v>
   <v>      -0.11111111       0.33333333       0.11111111 </v>
   <v>      -0.33333333       0.11111111       0.11111111 </v>
   <v>      -0.11111111       0.11111111       0.33333333 </v>
   <v>      -0.33333333      -0.11111111       0.11111111 </v>
   <v>      -0.11111111      -0.33333333       0.11111111 </v>
   <v>      -0.11111111      -0.11111111       0.33333333 </v>
   <v>       0.11111111      -0.33333333       0.11111111 </v>
   <v>       0.33333333      -0.11111111       0.11111111 </v>
   <v>       0.11111111      -0.11111111       0.33333333 </v>
   <v>       0.44444444       0.11111111       0.11111111 </v>
   <v>       0.11111111       0.44444444       0.11111111 </v>
   <v>       0.11111111       0.11111111       0.44444444 </v>
   <v>      -0.11111111       0.44444444       0.11111111 </v>
   <v>      -0.44444444       0.11111111       0.11111111 </v>
   <v>      -0.11111111       0.11111111       0.44444444 </v>
   <v>      -0.44444444      -0.11111111       0.11111111 </v>
   <v>      -0.11111111      -0.44444444       0.11111111 </v>
   <v>      -0.11111111      -0.11111111       0.44444444 </v>
   <v>       0.11111111      -0.44444444       0.11111111 </v>
   <v>       0.44444444      -0.11111111       0.11111111 </v>
   <v>       0.11111111      -0.11111111       0.44444444 </v>
   <v>       0.22222222       0.22222222       0.11111111 </v>
   <v>       0.11111111       0.22222222       0.22222222 </v>
   <v>       0.22222222       0.11111111       0.22222222 </v>
   <v>      -0.22222222       0.22222222       0.11111111 </v>
   <v>      -0.22222222       0.11111111       0.22222222 </v>
   <v>      -0.11111111       0.22222222       0.22222222 </v>
   <v>      -0.22222222      -0.22222222       0.11111111 </v>
   <v>      -0.11111111      -0.22222222       0.22222222 </v>
   <v>      -0.22222222      -0.11111111       0.22222222 </v>
   <v>       0.22222222      -0.22222222       0.11111111 </v>
   <v>       0.22222222      -0.11111111       0.22222222 </v>
   <v>       0.11111111      -0.22222222       0.22222222 </v>
   <v>       0.33333333       0.22222222       0.11111111 </v>
   <v>       0.11111111       0.33333333       0.22222222 </v>
   <v>       0.22222222       0.11111111       0.33333333 </v>
   <v>      -0.22222222       0.33333333       0.11111111 </v>
   <v>      -0.33333333       0.11111111       0.22222222 </v>
   <v>      -0.11111111       0.22222222       0.33333333 </v>
   <v>      -0.33333333      -0.22222222       0.11111111 </v>
   <v>      -0.11111111      -0.33333333       0.22222222 </v>
   <v>      -0.22222222      -0.11111111       0.33333333 </v>
   <v>       0.22222222      -0.33333333       0.11111111 </v>
   <v>       0.33333333      -0.11111111       0.22222222 </v>
   <v>       0.11111111      -0.22222222       0.33333333 </v>
   <v>       0.11111111      -0.33333333      -0.22222222 </v>
   <v>       0.22222222      -0.11111111      -0.33333333 </v>
   <v>       0.33333333      -0.22222222      -0.11111111 </v>
   <v>       0.11111111       0.22222222      -0.33333333 </v>
   <v>       0.22222222       0.33333333      -0.11111111 </v>
   <v>       0.33333333       0.11111111      -0.22222222 </v>
   <v>      -0.22222222       0.11111111      -0.33333333 </v>
   <v>      -0.33333333       0.22222222      -0.11111111 </v>
   <v>      -0.11111111       0.33333333      -0.22222222 </v>
   <v>      -0.33333333      -0.11111111      -0.22222222 </v>
   <v>      -0.22222222      -0.33333333      -0.11111111 </v>
   <v>      -0.11111111      -0.22222222      -0.33333333 </v>
   <v>       0.44444444       0.22222222       0.11111111 </v>
   <v>       0.11111111       0.44444444       0.22222222 </v>
   <v>       0.22222222       0.11111111       0.44444444 </v>
   <v>      -0.22222222       0.44444444       0.11111111 </v>
   <v>      -0.44444444       0.11111111       0.22222222 </v>
   <v>      -0.11111111       0.22222222       0.44444444 </v>
   <v>      -0.44444444      -0.22222222       0.11111111 </v>
   <v>      -0.11111111      -0.44444444       0.22222222 </v>
   <v>      -0.22222222      -0.11111111       0.44444444 </v>
   <v>       0.22222222      -0.44444444       0.11111111 </v>
   <v>       0.44444444      -0.11111111       0.22222222 </v>
   <v>       0.11111111      -0.22222222       0.44444444 </v>
   <v>       0.11111111      -0.44444444      -0.22222222 </v>
   <v>       0.22222222      -0.11111111      -0.44444444 </v>
   <v>       0.44444444      -0.22222222      -0.11111111 </v>
   <v>       0.11111111       0.22222222      -0.44444444 </v>
   <v>       0.22222222       0.44444444      -0.11111111 </v>
   <v>       0.44444444       0.11111111      -0.22222222 </v>
   <v>      -0.22222222       0.11111111      -0.44444444 </v>
   <v>      -0.44444444       0.22222222      -0.11111111 </v>
   <v>      -0.11111111       0.44444444      -0.22222222 </v>
   <v>      -0.44444444      -0.11111111      -0.22222222 </v>
   <v>      -0.22222222      -0.44444444      -0.11111111 </v>
   <v>      -0.11111111      -0.22222222      -0.44444444 </v>
   <v>       0.33333333       0.33333333       0.11111111 </v>
   <v>       0.11111111       0.33333333       0.33333333 </v>
   <v>       0.33333333       0.11111111       0.33333333 </v>
   <v>      -0.33333333       0.33333333       0.11111111 </v>
   <v>      -0.33333333       0.11111111       0.33333333 </v>
   <v>      -0.11111111       0.33333333       0.33333333 </v>
   <v>      -0.33333333      -0.33333333       0.11111111 </v>
   <v>      -0.11111111      -0.33333333       0.33333333 </v>
   <v>      -0.33333333      -0.11111111       0.33333333 </v>
   <v>       0.33333333      -0.33333333       0.11111111 </v>
   <v>       0.33333333      -0.11111111       0.33333333 </v>
   <v>       0.11111111      -0.33333333       0.33333333 </v>
   <v>       0.44444444       0.33333333       0.11111111 </v>
   <v>       0.11111111       0.44444444       0.33333333 </v>
   <v>       0.33333333       0.11111111       0.44444444 </v>
   <v>      -0.33333333       0.44444444       0.11111111 </v>
   <v>      -0.44444444       0.11111111       0.33333333 </v>
   <v>      -0.11111111       0.33333333       0.44444444 </v>
   <v>      -0.44444444      -0.33333333       0.11111111 </v>
   <v>      -0.11111111      -0.44444444       0.33333333 </v>
   <v>      -0.33333333      -0.11111111       0.44444444 </v>
   <v>       0.33333333      -0.44444444       0.11111111 </v>
   <v>       0.44444444      -0.11111111       0.33333333 </v>
   <v>       0.11111111      -0.33333333       0.44444444 </v>
   <v>       0.11111111      -0.44444444      -0.33333333 </v>
   <v>       0.33333333      -0.11111111      -0.44444444 </v>
   <v>       0.44444444      -0.33333333      -0.11111111 </v>
   <v>       0.11111111       0.33333333      -0.44444444 </v>
   <v>       0.33333333       0.44444444      -0.11111111 </v>
   <v>       0.44444444       0.11111111      -0.33333333 </v>
   <v>      -0.33333333       0.11111111      -0.44444444 </v>
   <v>      -0.44444444       0.33333333      -0.11111111 </v>
   <v>      -0.11111111       0.44444444      -0.33333333 </v>
   <v>      -0.44444444      -0.11111111      -0.33333333 </v>
   <v>      -0.33333333      -0.44444444      -0.11111111 </v>
   <v>      -0.11111111      -0.33333333      -0.44444444 </v>
   <v>       0.44444444       0.44444444       0.11111111 </v>
   <v>       0.11111111       0.44444444       0.44444444 </v>
   <v>       0.44444444       0.11111111       0.44444444 </v>
   <v>      -0.44444444       0.44444444       0.11111111 </v>
   <v>      -0.44444444       0.11111111       0.44444444 </v>
   <v>      -0.11111111       0.44444444       0.44444444 </v>
   <v>      -0.44444444      -0.44444444       0.11111111 </v>
   <v>      -0.11111111      -0.44444444       0.44444444 </v>
   <v>      -0.44444444      -0.11111111       0.44444444 </v>
   <v>       0.44444444      -0.44444444       0.11111111 </v>
   <v>       0.44444444      -0.11111111       0.44444444 </v>
   <v>       0.11111111      -0.44444444       0.44444444 </v>
   <v>       0.22222222       0.22222222       0.22222222 </v>
   <v>      -0.22222222       0.22222222       0.22222222 </v>
   <v>      -0.22222222      -0.22222222       0.22222222 </v>
   <v>       0.22222222      -0.22222222       0.22222222 </v>
   <v>       0.33333333       0.22222222       0.22222222 </v>
   <v>       0.22222222       0.33333333       0.22222222 </v>
   <v>       0.22222222       0.22222222       0.33333333 </v>
   <v>      -0.22222222       0.33333333       0.22222222 </v>
   <v>      -0.33333333       0.22222222       0.22222222 </v>
   <v>      -0.22222222       0.22222222       0.33333333 </v>
   <v>      -0.33333333      -0.22222222       0.22222222 </v>
   <v>      -0.22222222      -0.33333333       0.22222222 </v>
   <v>      -0.22222222      -0.22222222       0.33333333 </v>
   <v>       0.22222222      -0.33333333       0.22222222 </v>
   <v>       0.33333333      -0.22222222       0.22222222 </v>
   <v>       0.22222222      -0.22222222       0.33333333 </v>
   <v>       0.44444444       0.22222222       0.22222222 </v>
   <v>       0.22222222       0.44444444       0.22222222 </v>
   <v>       0.22222222       0.22222222       0.44444444 </v>
   <v>      -0.22222222       0.44444444       0.22222222 </v>
   <v>      -0.44444444       0.22222222       0.22222222 </v>
   <v>      -0.22222222       0.22222222       0.44444444 </v>
   <v>      -0.44444444      -0.22222222       0.22222222 </v>
   <v>      -0.22222222      -0.44444444       0.22222222 </v>
   <v>      -0.22222222      -0.22222222       0.44444444 </v>
   <v>       0.22222222      -0.44444444       0.22222222 </v>
   <v>       0.44444444      -0.22222222       0.22222222 </v>
   <v>       0.22222222      -0.22222222       0.44444444 </v>
   <v>       0.33333333       0.33333333       0.22222222 </v>
   <v>       0.22222222       0.33333333       0.33333333 </v>
   <v>       0.33333333       0.22222222       0.33333333 </v>
   <v>      -0.33333333       0.33333333       0.22222222 </v>
   <v>      -0.33333333       0.22222222       0.33333333 </v>
   <v>      -0.22222222       0.33333333       0.33333333 </v>
   <v>      -0.33333333      -0.33333333       0.22222222 </v>
   <v>      -0.22222222      -0.33333333       0.33333333 </v>
   <v>      -0.33333333      -0.22222222       0.33333333 </v>
   <v>       0.33333333      -0.33333333       0.22222222 </v>
   <v>       0.33333333      -0.22222222       0.33333333 </v>
   <v>       0.22222222      -0.33333333       0.33333333 </v>
   <v>       0.44444444       0.33333333       0.22222222 </v>
   <v>       0.22222222       0.44444444       0.33333333 </v>
   <v>       0.33333333       0.22222222       0.44444444 </v>
   <v>      -0.33333333       0.44444444       0.22222222 </v>
   <v>      -0.44444444       0.22222222       0.33333333 </v>
   <v>      -0.22222222       0.33333333       0.44444444 </v>
   <v>      -0.44444444      -0.33333333       0.22222222 </v>
   <v>      -0.22222222      -0.44444444       0.33333333 </v>
   <v>      -0.33333333      -0.22222222       0.44444444 </v>
   <v>       0.33333333      -0.44444444       0.22222222 </v>
   <v>       0.44444444      -0.22222222       0.33333333 </v>
   <v>       0.22222222      -0.33333333       0.44444444 </v>
   <v>       0.22222222      -0.44444444      -0.33333333 </v>
   <v>       0.33333333      -0.22222222      -0.44444444 </v>
   <v>       0.44444444      -0.33333333      -0.22222222 </v>
   <v>       0.22222222       0.33333333      -0.44444444 </v>
   <v>       0.33333333       0.44444444      -0.22222222 </v>
   <v>       0.44444444       0.22222222      -0.33333333 </v>
   <v>      -0.33333333       0.22222222      -0.44444444 </v>
   <v>      -0.44444444       0.33333333      -0.22222222 </v>
   <v>      -0.22222222       0.44444444      -0.33333333 </v>
   <v>      -0.44444444      -0.22222222      -0.33333333 </v>
   <v>      -0.33333333      -0.44444444      -0.22222222 </v>
   <v>      -0.22222222      -0.33333333      -0.44444444 </v>
   <v>       0.44444444       0.44444444       0.22222222 </v>
   <v>       0.22222222       0.44444444       0.44444444 </v>
   <v>       0.44444444       0.22222222       0.44444444 </v>
   <v>      -0.44444444       0.44444444       0.22222222 </v>
   <v>      -0.44444444       0.22222222       0.44444444 </v>
   <v>      -0.22222222       0.44444444       0.44444444 </v>
   <v>      -0.44444444      -0.44444444       0.22222222 </v>
   <v>      -0.22222222      -0.44444444       0.44444444 </v>
   <v>      -0.44444444      -0.22222222       0.44444444 </v>
   <v>       0.44444444      -0.44444444       0.22222222 </v>
   <v>       0.44444444      -0.22222222       0.44444444 </v>
   <v>       0.22222222      -0.44444444       0.44444444 </v>
   <v>       0.33333333       0.33333333       0.33333333 </v>
   <v>      -0.33333333       0.33333333       0.33333333 </v>
   <v>      -0.33333333      -0.33333333       0.33333333 </v>
   <v>       0.33333333      -0.33333333       0.33333333 </v>
   <v>       0.44444444       0.33333333       0.33333333 </v>
   <v>       0.33333333       0.44444444       0.33333333 </v>
   <v>       0.33333333       0.33333333       0.44444444 </v>
   <v>      -0.33333333       0.44444444       0.33333333 </v>
   <v>      -0.44444444       0.33333333       0.33333333 </v>
   <v>      -0.33333333       0.33333333       0.44444444 </v>
   <v>      -0.44444444      -0.33333333       0.33333333 </v>
   <v>      -0.33333333      -0.44444444       0.33333333 </v>
   <v>      -0.33333333      -0.33333333       0.44444444 </v>
   <v>       0.33333333      -0.44444444       0.33333333 </v>
   <v>       0.44444444      -0.33333333       0.33333333 </v>
   <v>       0.33333333      -0.33333333       0.44444444 </v>
   <v>       0.44444444       0.44444444       0.33333333 </v>
   <v>       0.33333333       0.44444444       0.44444444 </v>
   <v>       0.44444444       0.33333333       0.44444444 </v>
   <v>      -0.44444444       0.44444444       0.33333333 </v>
   <v>      -0.44444444       0.33333333       0.44444444 </v>
   <v>      -0.33333333       0.44444444       0.44444444 </v>
   <v>      -0.44444444      -0.44444444       0.33333333 </v>
   <v>      -0.33333333      -0.44444444       0.44444444 </v>
   <v>      -0.44444444      -0.33333333       0.44444444 </v>
   <v>       0.44444444      -0.44444444       0.33333333 </v>
   <v>       0.44444444      -0.33333333       0.44444444 </v>
   <v>       0.33333333      -0.44444444       0.44444444 </v>
   <v>       0.44444444       0.44444444       0.44444444 </v>
   <v>      -0.44444444       0.44444444       0.44444444 </v>
   <v>      -0.44444444      -0.44444444       0.44444444 </v>
   <v>       0.44444444      -0.44444444       0.44444444 </v>
  </varray>
  <varray name="weights" >
   <v>       0.00137174 </v>
   <v>       0.00274348 </v>
   <v>       0.00274348 </v>
   <v>       0.00274348 </v>
   <v>       0.00274348 </v>
   <v>       0.00274348 </v>
   <v>       0.00274348 </v>
   <v>       0.00274348 </v>
   <v>       0.00274348 </v>
   <v>       0.00274348 </v>
   <v>       0.00274348 </v>
   <v>       0.00274348 </v>
   <v>       0.00274348 </v>
   <v>       0.00274348 </v>
   <v>       0.00274348 </v>
   <v>       0.00274348 </v>
   <v>       0.00274348 </v>
   <v>       0.00274348 </v>
   <v>       0.00274348 </v>
   <v>       0.00274348 </v>
   <v>       0.00274348 </v>
   <v>       0.00274348 </v>
   <v>       0.00274348 </v>
   <v>       0.00274348 </v>
   <v>       0.00274348 </v>
   <v>       0.00274348 </v>
   <v>       0.00274348 </v>
   <v>       0.00274348 </v>
   <v>       0.00274348 </v>
   <v>       0.00274348 </v>
   <v>       0.00274348 </v>
   <v>       0.00274348 </v>
   <v>       0.00274348 </v>
   <v>       0.00274348 </v>
   <v>       0.00274348 </v>
   <v>       0.00274348 </v>
   <v>       0.00274348 </v>
   <v>       0.00274348 </v>
   <v>       0.00274348 </v>
   <v>       0.00274348 </v>
   <v>       0.00274348 </v>
   <v>       0.00274348 </v>
   <v>       0.00274348 </v>
   <v>       0.00274348 </v>
   <v>       0.00274348 </v>
   <v>       0.00274348 </v>
   <v>       0.00274348 </v>
   <v>       0.00274348 </v>
   <v>       0.00274348 </v>
   <v>       0.00274348 </v>
   <v>       0.00274348 </v>
   <v>       0.00274348 </v>
   <v>       0.00274348 </v>
   <v>       0.00274348 </v>
   <v>       0.00274348 </v>
   <v>       0.00274348 </v>
   <v>       0.00274348 </v>
   <v>       0.00274348 </v>
   <v>       0.00274348 </v>
   <v>       0.00274348 </v>
   <v>       0.00274348 </v>
   <v>       0.00274348 </v>
   <v>       0.00274348 </v>
   <v>       0.00274348 </v>
   <v>       0.00274348 </v>
   <v>       0.00274348 </v>
   <v>       0.00274348 </v>
   <v>       0.00274348 </v>
   <v>       0.00274348 </v>
   <v>       0.00274348 </v>
   <v>       0.00274348 </v>
   <v>       0.00274348 </v>
   <v>       0.00274348 </v>
   <v>       0.00274348 </v>
   <v>       0.00274348 </v>
   <v>       0.00274348 </v>
   <v>       0.00274348 </v>
   <v>       0.00274348 </v>
   <v>       0.00274348 </v>
   <v>       0.00274348 </v>
   <v>       0.00274348 </v>
   <v>       0.00274348 </v>
   <v>       0.00274348 </v>
   <v>       0.00274348 </v>
   <v>       0.00274348 </v>
   <v>       0.00274348 </v>
   <v>       0.00274348 </v>
   <v>       0.00274348 </v>
   <v>       0.00274348 </v>
   <v>       0.00274348 </v>
   <v>       0.00274348 </v>
   <v>       0.00274348 </v>
   <v>       0.00274348 </v>
   <v>       0.00274348 </v>
   <v>       0.00274348 </v>
   <v>       0.00274348 </v>
   <v>       0.00274348 </v>
   <v>       0.00274348 </v>
   <v>       0.00274348 </v>
   <v>       0.00274348 </v>
   <v>       0.00274348 </v>
   <v>       0.00274348 </v>
   <v>       0.00274348 </v>
   <v>       0.00274348 </v>
   <v>       0.00274348 </v>
   <v>       0.00274348 </v>
   <v>       0.00274348 </v>
   <v>       0.00274348 </v>
   <v>       0.00274348 </v>
   <v>       0.00274348 </v>
   <v>       0.00274348 </v>
   <v>       0.00274348 </v>
   <v>       0.00274348 </v>
   <v>       0.00274348 </v>
   <v>       0.00274348 </v>
   <v>       0.00274348 </v>
   <v>       0.00274348 </v>
   <v>       0.00274348 </v>
   <v>       0.00274348 </v>
   <v>       0.00274348 </v>
   <v>       0.00274348 </v>
   <v>       0.00274348 </v>
   <v>       0.00274348 </v>
   <v>       0.00274348 </v>
   <v>       0.00274348 </v>
   <v>       0.00274348 </v>
   <v>       0.00274348 </v>
   <v>       0.00274348 </v>
   <v>       0.00274348 </v>
   <v>       0.00274348 </v>
   <v>       0.00274348 </v>
   <v>       0.00274348 </v>
   <v>       0.00274348 </v>
   <v>       0.00274348 </v>
   <v>       0.00274348 </v>
   <v>       0.00274348 </v>
   <v>       0.00274348 </v>
   <v>       0.00274348 </v>
   <v>       0.00274348 </v>
   <v>       0.00274348 </v>
   <v>       0.00274348 </v>
   <v>       0.00274348 </v>
   <v>       0.00274348 </v>
   <v>       0.00274348 </v>
   <v>       0.00274348 </v>
   <v>       0.00274348 </v>
   <v>       0.00274348 </v>
   <v>       0.00274348 </v>
   <v>       0.00274348 </v>
   <v>       0.00274348 </v>
   <v>       0.00274348 </v>
   <v>       0.00274348 </v>
   <v>       0.00274348 </v>
   <v>       0.00274348 </v>
   <v>       0.00274348 </v>
   <v>       0.00274348 </v>
   <v>       0.00274348 </v>
   <v>       0.00274348 </v>
   <v>       0.00274348 </v>
   <v>       0.00274348 </v>
   <v>       0.00274348 </v>
   <v>       0.00274348 </v>
   <v>       0.00274348 </v>
   <v>       0.00274348 </v>
   <v>       0.00274348 </v>
   <v>       0.00274348 </v>
   <v>       0.00274348 </v>
   <v>       0.00274348 </v>
   <v>       0.00274348 </v>
   <v>       0.00274348 </v>
   <v>       0.00274348 </v>
   <v>       0.00274348 </v>
   <v>       0.00274348 </v>
   <v>       0.00274348 </v>
   <v>       0.00274348 </v>
   <v>       0.00274348 </v>
   <v>       0.00274348 </v>
   <v>       0.00274348 </v>
   <v>       0.00274348 </v>
   <v>       0.00274348 </v>
   <v>       0.00274348 </v>
   <v>       0.00274348 </v>
   <v>       0.00274348 </v>
   <v>       0.00274348 </v>
   <v>       0.00274348 </v>
   <v>       0.00274348 </v>
   <v>       0.00274348 </v>
   <v>       0.00274348 </v>
   <v>       0.00274348 </v>
   <v>       0.00274348 </v>
   <v>       0.00274348 </v>
   <v>       0.00274348 </v>
   <v>       0.00274348 </v>
   <v>       0.00274348 </v>
   <v>       0.00274348 </v>
   <v>       0.00274348 </v>
   <v>       0.00274348 </v>
   <v>       0.00274348 </v>
   <v>       0.00274348 </v>
   <v>       0.00274348 </v>
   <v>       0.00274348 </v>
   <v>       0.00274348 </v>
   <v>       0.00274348 </v>
   <v>       0.00274348 </v>
   <v>       0.00274348 </v>
   <v>       0.00274348 </v>
   <v>       0.00274348 </v>
   <v>       0.00274348 </v>
   <v>       0.00274348 </v>
   <v>       0.00274348 </v>
   <v>       0.00274348 </v>
   <v>       0.00274348 </v>
   <v>       0.00274348 </v>
   <v>       0.00274348 </v>
   <v>       0.00274348 </v>
   <v>       0.00274348 </v>
   <v>       0.00274348 </v>
   <v>       0.00274348 </v>
   <v>       0.00274348 </v>
   <v>       0.00274348 </v>
   <v>       0.00274348 </v>
   <v>       0.00274348 </v>
   <v>       0.00274348 </v>
   <v>       0.00274348 </v>
   <v>       0.00274348 </v>
   <v>       0.00274348 </v>
   <v>       0.00274348 </v>
   <v>       0.00274348 </v>
   <v>       0.00274348 </v>
   <v>       0.00274348 </v>
   <v>       0.00274348 </v>
   <v>       0.00274348 </v>
   <v>       0.00274348 </v>
   <v>       0.00274348 </v>
   <v>       0.00274348 </v>
   <v>       0.00274348 </v>
   <v>       0.00274348 </v>
   <v>       0.00274348 </v>
   <v>       0.00274348 </v>
   <v>       0.00274348 </v>
   <v>       0.00274348 </v>
   <v>       0.00274348 </v>
   <v>       0.00274348 </v>
   <v>       0.00274348 </v>
   <v>       0.00274348 </v>
   <v>       0.00274348 </v>
   <v>       0.00274348 </v>
   <v>       0.00274348 </v>
   <v>       0.00274348 </v>
   <v>       0.00274348 </v>
   <v>       0.00274348 </v>
   <v>       0.00274348 </v>
   <v>       0.00274348 </v>
   <v>       0.00274348 </v>
   <v>       0.00274348 </v>
   <v>       0.00274348 </v>
   <v>       0.00274348 </v>
   <v>       0.00274348 </v>
   <v>       0.00274348 </v>
   <v>       0.00274348 </v>
   <v>       0.00274348 </v>
   <v>       0.00274348 </v>
   <v>       0.00274348 </v>
   <v>       0.00274348 </v>
   <v>       0.00274348 </v>
   <v>       0.00274348 </v>
   <v>       0.00274348 </v>
   <v>       0.00274348 </v>
   <v>       0.00274348 </v>
   <v>       0.00274348 </v>
   <v>       0.00274348 </v>
   <v>       0.00274348 </v>
   <v>       0.00274348 </v>
   <v>       0.00274348 </v>
   <v>       0.00274348 </v>
   <v>       0.00274348 </v>
   <v>       0.00274348 </v>
   <v>       0.00274348 </v>
   <v>       0.00274348 </v>
   <v>       0.00274348 </v>
   <v>       0.00274348 </v>
   <v>       0.00274348 </v>
   <v>       0.00274348 </v>
   <v>       0.00274348 </v>
   <v>       0.00274348 </v>
   <v>       0.00274348 </v>
   <v>       0.00274348 </v>
   <v>       0.00274348 </v>
   <v>       0.00274348 </v>
   <v>       0.00274348 </v>
   <v>       0.00274348 </v>
   <v>       0.00274348 </v>
   <v>       0.00274348 </v>
   <v>       0.00274348 </v>
   <v>       0.00274348 </v>
   <v>       0.00274348 </v>
   <v>       0.00274348 </v>
   <v>       0.00274348 </v>
   <v>       0.00274348 </v>
   <v>       0.00274348 </v>
   <v>       0.00274348 </v>
   <v>       0.00274348 </v>
   <v>       0.00274348 </v>
   <v>       0.00274348 </v>
   <v>       0.00274348 </v>
   <v>       0.00274348 </v>
   <v>       0.00274348 </v>
   <v>       0.00274348 </v>
   <v>       0.00274348 </v>
   <v>       0.00274348 </v>
   <v>       0.00274348 </v>
   <v>       0.00274348 </v>
   <v>       0.00274348 </v>
   <v>       0.00274348 </v>
   <v>       0.00274348 </v>
   <v>       0.00274348 </v>
   <v>       0.00274348 </v>
   <v>       0.00274348 </v>
   <v>       0.00274348 </v>
   <v>       0.00274348 </v>
   <v>       0.00274348 </v>
   <v>       0.00274348 </v>
   <v>       0.00274348 </v>
   <v>       0.00274348 </v>
   <v>       0.00274348 </v>
   <v>       0.00274348 </v>
   <v>       0.00274348 </v>
   <v>       0.00274348 </v>
   <v>       0.00274348 </v>
   <v>       0.00274348 </v>
   <v>       0.00274348 </v>
   <v>       0.00274348 </v>
   <v>       0.00274348 </v>
   <v>       0.00274348 </v>
   <v>       0.00274348 </v>
   <v>       0.00274348 </v>
   <v>       0.00274348 </v>
   <v>       0.00274348 </v>
   <v>       0.00274348 </v>
   <v>       0.00274348 </v>
   <v>       0.00274348 </v>
   <v>       0.00274348 </v>
   <v>       0.00274348 </v>
   <v>       0.00274348 </v>
   <v>       0.00274348 </v>
   <v>       0.00274348 </v>
   <v>       0.00274348 </v>
   <v>       0.00274348 </v>
   <v>       0.00274348 </v>
   <v>       0.00274348 </v>
   <v>       0.00274348 </v>
   <v>       0.00274348 </v>
   <v>       0.00274348 </v>
   <v>       0.00274348 </v>
   <v>       0.00274348 </v>
   <v>       0.00274348 </v>
   <v>       0.00274348 </v>
   <v>       0.00274348 </v>
   <v>       0.00274348 </v>
   <v>       0.00274348 </v>
   <v>       0.00274348 </v>
   <v>       0.00274348 </v>
   <v>       0.00274348 </v>
   <v>       0.00274348 </v>
   <v>       0.00274348 </v>
  </varray>
 </kpoints>
 <parameters>
  <separator name="general" >
   <i type="string" name="SYSTEM">al</i>
   <i type="logical" name="LCOMPAT"> F  </i>
  </separator>
  <separator name="electronic" >
   <i type="string" name="PREC">accura</i>
   <i name="ENMAX">    600.00000000</i>
   <i name="ENAUG">    291.05200000</i>
   <i name="EDIFF">      0.00000100</i>
   <i type="int" name="IALGO">    38</i>
   <i type="int" name="IWAVPR">    10</i>
   <i type="int" name="NBANDS">    72</i>
   <i type="int" name="NBANDSLOW">    -1</i>
   <i type="int" name="NBANDSHIGH">    -1</i>
   <i name="NELECT">     96.00000000</i>
   <i type="int" name="TURBO">     0</i>
   <i type="int" name="IRESTART">     0</i>
   <i type="int" name="NREBOOT">     0</i>
   <i type="int" name="NMIN">     0</i>
   <i name="EREF">      0.00000000</i>
   <separator name="electronic smearing" >
    <i type="int" name="ISMEAR">     0</i>
    <i name="SIGMA">      0.05000000</i>
    <i name="KSPACING">      0.50000000</i>
    <i type="logical" name="KGAMMA"> T  </i>
    <i type="logical" name="KBLOWUP"> T  </i>
   </separator>
   <separator name="electronic projectors" >
    <i type="logical" name="LREAL"> T  </i>
    <v name="ROPT">     -0.00025000</v>
    <i type="int" name="LMAXPAW">    -1</i>
    <i type="int" name="LMAXMIX">     2</i>
    <i type="logical" name="NLSPLINE"> F  </i>
   </separator>
   <separator name="electronic startup" >
    <i type="int" name="ISTART">     0</i>
    <i type="int" name="ICHARG">     2</i>
    <i type="int" name="INIWAV">     1</i>
   </separator>
   <separator name="electronic spin" >
    <i type="int" name="ISPIN">     1</i>
    <i type="logical" name="LNONCOLLINEAR"> F  </i>
    <v name="MAGMOM">      1.00000000      1.00000000      1.00000000      1.00000000      1.00000000      1.00000000      1.00000000      1.00000000      1.00000000      1.00000000      1.00000000      1.00000000      1.00000000      1.00000000      1.00000000      1.00000000      1.00000000      1.00000000      1.00000000      1.00000000
      1.00000000      1.00000000      1.00000000      1.00000000      1.00000000      1.00000000      1.00000000      1.00000000      1.00000000      1.00000000      1.00000000      1.00000000</v>
    <i name="NUPDOWN">     -1.00000000</i>
    <i type="logical" name="LSORBIT"> F  </i>
    <v name="SAXIS">      0.00000000      0.00000000      1.00000000</v>
    <i type="logical" name="LSPIRAL"> F  </i>
    <v name="QSPIRAL">      0.00000000      0.00000000      0.00000000</v>
    <i type="logical" name="LZEROZ"> F  </i>
   </separator>
   <separator name="electronic exchange-correlation" >
    <i type="logical" name="LASPH"> F  </i>
    <i type="logical" name="LMETAGGA"> F  </i>
   </separator>
   <separator name="electronic convergence" >
    <i type="int" name="NELM">   200</i>
    <i type="int" name="NELMDL">    -5</i>
    <i type="int" name="NELMIN">     2</i>
    <i name="ENINI">    600.00000000</i>
    <separator name="electronic convergence detail" >
     <i type="logical" name="LDIAG"> T  </i>
     <i type="logical" name="LSUBROT"> F  </i>
     <i name="WEIMIN">      0.00000000</i>
     <i name="EBREAK">      0.00000000</i>
     <i name="DEPER">      0.30000000</i>
     <i type="int" name="NRMM">     4</i>
     <i name="TIME">      0.40000000</i>
    </separator>
   </separator>
   <separator name="electronic mixer" >
    <i name="AMIX">      0.40000000</i>
    <i name="BMIX">      1.00000000</i>
    <i name="AMIN">      0.10000000</i>
    <i name="AMIX_MAG">      1.60000000</i>
    <i name="BMIX_MAG">      1.00000000</i>
    <separator name="electronic mixer details" >
     <i type="int" name="IMIX">     4</i>
     <i type="logical" name="MIXFIRST"> F  </i>
     <i type="int" name="MAXMIX">   -45</i>
     <i name="WC">    100.00000000</i>
     <i type="int" name="INIMIX">     1</i>
     <i type="int" name="MIXPRE">     1</i>
     <i type="int" name="MREMOVE">     5</i>
    </separator>
   </separator>
   <separator name="electronic dipolcorrection" >
    <i type="logical" name="LDIPOL"> F  </i>
    <i type="logical" name="LMONO"> F  </i>
    <i type="int" name="IDIPOL">     0</i>
    <i name="EPSILON">      1.00000000</i>
    <v name="DIPOL">   -100.00000000   -100.00000000   -100.00000000</v>
    <i name="EFIELD">      0.00000000</i>
   </separator>
  </separator>
  <separator name="grids" >
   <i type="int" name="NGX">    70</i>
   <i type="int" name="NGY">    70</i>
   <i type="int" name="NGZ">    70</i>
   <i type="int" name="NGXF">   140</i>
   <i type="int" name="NGYF">   140</i>
   <i type="int" name="NGZF">   140</i>
   <i type="logical" name="ADDGRID"> F  </i>
  </separator>
  <separator name="ionic" >
   <i type="int" name="NSW">     0</i>
   <i type="int" name="IBRION">    -1</i>
   <i type="int" name="MDALGO">     0</i>
   <i type="int" name="ISIF">     2</i>
   <i name="PSTRESS">      0.00000000</i>
   <i name="EDIFFG">      0.00001000</i>
   <i type="int" name="NFREE">     0</i>
   <i name="POTIM">      0.50000000</i>
   <i name="SMASS">     -3.00000000</i>
   <i name="SCALEE">      1.00000000</i>
  </separator>
  <separator name="ionic md" >
   <i name="TEBEG">      0.00010000</i>
   <i name="TEEND">      0.00010000</i>
   <i type="int" name="NBLOCK">     1</i>
   <i type="int" name="KBLOCK">     1</i>
   <i type="int" name="NPACO">   256</i>
   <i name="APACO">     16.00000000</i>
  </separator>
  <separator name="symmetry" >
   <i type="int" name="ISYM">     2</i>
   <i name="SYMPREC">      0.00001000</i>
  </separator>
  <separator name="dos" >
   <i type="int" name="LORBIT">     0</i>
   <v name="RWIGS">     -1.00000000</v>
   <i type="int" name="NEDOS">   301</i>
   <i name="EMIN">     10.00000000</i>
   <i name="EMAX">    -10.00000000</i>
   <i name="EFERMI">      0.00000000</i>
  </separator>
  <separator name="writing" >
   <i type="int" name="NWRITE">     2</i>
   <i type="logical" name="LWAVE"> F  </i>
   <i type="logical" name="LDOWNSAMPLE"> F  </i>
   <i type="logical" name="LCHARG"> T  </i>
   <i type="logical" name="LPARD"> F  </i>
   <i type="logical" name="LVTOT"> F  </i>
   <i type="logical" name="LVHAR"> F  </i>
   <i type="logical" name="LELF"> F  </i>
   <i type="logical" name="LOPTICS"> F  </i>
   <v name="STM">      0.00000000      0.00000000      0.00000000      0.00000000      0.00000000      0.00000000      0.00000000</v>
  </separator>
  <separator name="performance" >
   <i type="int" name="NPAR">     8</i>
   <i type="int" name="NSIM">     8</i>
   <i type="int" name="NBLK">    -1</i>
   <i type="logical" name="LPLANE"> T  </i>
   <i type="logical" name="LSCALAPACK"> T  </i>
   <i type="logical" name="LSCAAWARE"> F  </i>
   <i type="logical" name="LSCALU"> F  </i>
   <i type="logical" name="LASYNC"> F  </i>
   <i type="logical" name="LORBITALREAL"> F  </i>
  </separator>
  <separator name="miscellaneous" >
   <i type="int" name="IDIOT">     3</i>
   <i type="int" name="PHON_NSTRUCT">    -1</i>
   <i type="logical" name="LMUSIC"> F  </i>
   <v name="POMASS">     26.98100000</v>
   <v name="DARWINR">      0.00000000</v>
   <v name="DARWINV">      1.00000000</v>
   <i type="logical" name="LCORR"> T  </i>
  </separator>
  <i type="logical" name="GGA_COMPAT"> T  </i>
  <i type="logical" name="LBERRY"> F  </i>
  <i type="int" name="ICORELEVEL">     0</i>
  <i type="logical" name="LDAU"> F  </i>
  <i type="int" name="I_CONSTRAINED_M">     0</i>
  <separator name="electronic exchange-correlation" >
   <i type="string" name="GGA">PE</i>
   <i type="int" name="VOSKOWN">     0</i>
   <i type="logical" name="LHFCALC"> F  </i>
   <i type="string" name="PRECFOCK"></i>
   <i type="logical" name="LSYMGRAD"> F  </i>
   <i type="logical" name="LHFONE"> F  </i>
   <i type="logical" name="LRHFCALC"> F  </i>
   <i type="logical" name="LTHOMAS"> F  </i>
   <i type="logical" name="LMODELHF"> F  </i>
   <i type="logical" name="LFOCKACE"> F  </i>
   <i name="ENCUT4O">     -1.00000000</i>
   <i type="int" name="EXXOEP">     0</i>
   <i type="int" name="FOURORBIT">     0</i>
   <i name="AEXX">      0.00000000</i>
   <i name="HFALPHA">      0.00000000</i>
   <i name="MCALPHA">      0.00000000</i>
   <i name="ALDAX">      1.00000000</i>
   <i name="AGGAX">      1.00000000</i>
   <i name="ALDAC">      1.00000000</i>
   <i name="AGGAC">      1.00000000</i>
   <i type="int" name="NKREDX">     1</i>
   <i type="int" name="NKREDY">     1</i>
   <i type="int" name="NKREDZ">     1</i>
   <i type="logical" name="SHIFTRED"> F  </i>
   <i type="logical" name="ODDONLY"> F  </i>
   <i type="logical" name="EVENONLY"> F  </i>
   <i type="int" name="LMAXFOCK">     0</i>
   <i type="int" name="NMAXFOCKAE">     0</i>
   <i type="logical" name="LFOCKAEDFT"> F  </i>
   <i name="HFSCREEN">      0.00000000</i>
   <i name="HFSCREENC">      0.00000000</i>
   <i type="int" name="NBANDSGWLOW">     0</i>
  </separator>
  <separator name="vdW DFT" >
   <i type="logical" name="LUSE_VDW"> F  </i>
   <i name="Zab_VDW">     -0.84910000</i>
   <i name="PARAM1">      0.12340000</i>
   <i name="PARAM2">      1.00000000</i>
   <i name="PARAM3">      0.00000000</i>
  </separator>
  <separator name="model GW" >
   <i type="int" name="MODEL_GW">     0</i>
   <i name="MODEL_EPS0">      9.88389577</i>
   <i name="MODEL_ALPHA">      1.00000000</i>
  </separator>
  <separator name="linear response parameters" >
   <i type="logical" name="LEPSILON"> F  </i>
   <i type="logical" name="LRPA"> F  </i>
   <i type="logical" name="LNABLA"> F  </i>
   <i type="logical" name="LVEL"> F  </i>
   <i type="int" name="KINTER">     0</i>
   <i name="CSHIFT">      0.10000000</i>
   <i name="OMEGAMAX">     -1.00000000</i>
   <i name="DEG_THRESHOLD">      0.00200000</i>
   <i name="RTIME">     -0.10000000</i>
   <i name="WPLASMAI">      0.00000000</i>
   <v name="DFIELD">      0.00000000      0.00000000      0.00000000</v>
   <v name="WPLASMA">      0.00000000      0.00000000      0.00000000      0.00000000      0.00000000      0.00000000      0.00000000      0.00000000      0.00000000</v>
  </separator>
  <separator name="orbital magnetization" >
   <i type="logical" name="NUCIND"> F  </i>
   <v name="MAGPOS">      0.00000000      0.00000000      0.00000000</v>
   <i type="logical" name="LNICSALL"> T  </i>
   <i type="logical" name="ORBITALMAG"> F  </i>
   <i type="logical" name="LMAGBLOCH"> F  </i>
   <i type="logical" name="LCHIMAG"> F  </i>
   <i type="logical" name="LGAUGE"> T  </i>
   <i type="int" name="MAGATOM">     0</i>
   <v name="MAGDIPOL">      0.00000000      0.00000000      0.00000000</v>
   <v name="AVECCONST">      0.00000000      0.00000000      0.00000000</v>
  </separator>
  <separator name="response functions" >
   <i type="logical" name="LFINITE_TEMPERATURE"> F  </i>
   <i type="logical" name="LADDER"> F  </i>
   <i type="logical" name="LRPAFORCE"> F  </i>
   <i type="logical" name="LFXC"> F  </i>
   <i type="logical" name="LHARTREE"> T  </i>
   <i type="int" name="IBSE">     0</i>
   <v type="int" name="KPOINT">    -1     0     0     0</v>
   <i type="logical" name="LTCTC"> F  </i>
   <i type="logical" name="LTCTE"> F  </i>
   <i type="logical" name="LTETE"> F  </i>
   <i type="logical" name="LTRIPLET"> F  </i>
   <i type="logical" name="LFXCEPS"> F  </i>
   <i type="logical" name="LFXHEG"> F  </i>
   <i type="int" name="NATURALO">     2</i>
   <i type="logical" name="LHOLEGF"> F  </i>
   <i type="logical" name="L2ORDER"> F  </i>
   <i type="logical" name="LDMP1"> F  </i>
   <i type="logical" name="LMP2LT"> F  </i>
   <i type="logical" name="LSMP2LT"> F  </i>
   <i type="logical" name="LGWLF"> F  </i>
   <i name="ENCUTGW">     -2.00000000</i>
   <i name="ENCUTGWSOFT">     -2.00000000</i>
   <i name="ENCUTLF">     -1.00000000</i>
   <i type="logical" name="LESF_SPLINES"> F  </i>
   <i type="int" name="LMAXMP2">    -1</i>
   <i name="SCISSOR">      0.00000000</i>
   <i type="int" name="NOMEGA">     0</i>
   <i type="int" name="NOMEGAR">     0</i>
   <i type="int" name="NBANDSGW">    -1</i>
   <i type="int" name="NBANDSO">    -1</i>
   <i type="int" name="NBANDSV">    -1</i>
   <i type="int" name="NELM">   200</i>
   <i type="int" name="NELMHF">     1</i>
   <i type="int" name="DIM">     3</i>
   <i type="int" name="IESPILON">     4</i>
   <i type="int" name="ANTIRES">     0</i>
   <i name="OMEGAMAX">    -30.00000000</i>
   <i name="OMEGAMIN">    -30.00000000</i>
   <i name="OMEGATL">   -200.00000000</i>
   <i type="int" name="OMEGAGRID">     0</i>
   <i name="CSHIFT">     -0.10000000</i>
   <i type="logical" name="LSELFENERGY"> F  </i>
   <i type="logical" name="LSPECTRAL"> F  </i>
   <i type="logical" name="LSPECTRALGW"> F  </i>
   <i type="logical" name="LSINGLES"> F  </i>
   <i type="logical" name="LFERMIGW"> F  </i>
   <i type="logical" name="ODDONLYGW"> F  </i>
   <i type="logical" name="EVENONLYGW"> F  </i>
   <i type="int" name="NKREDLFX">     1</i>
   <i type="int" name="NKREDLFY">     1</i>
   <i type="int" name="NKREDLFZ">     1</i>
   <i type="int" name="MAXMEM">  2800</i>
   <i type="int" name="TELESCOPE">     0</i>
   <i type="int" name="NTAUPAR">    -1</i>
   <i type="int" name="NOMEGAPAR">    -1</i>
   <i name="DAMP_NEWTON">      0.80000001</i>
   <i name="LAMBDA">      1.00000000</i>
  </separator>
  <separator name="External order field" >
   <i name="OFIELD_KAPPA">      0.00000000</i>
   <v name="OFIELD_K">      0.00000000      0.00000000      0.00000000</v>
   <i name="OFIELD_Q6_NEAR">      0.00000000</i>
   <i name="OFIELD_Q6_FAR">      0.00000000</i>
   <i name="OFIELD_A">      0.00000000</i>
  </separator>
 </parameters>
 <atominfo>
  <atoms>      32 </atoms>
  <types>       1 </types>
  <array name="atoms" >
   <dimension dim="1">ion</dimension>
   <field type="string">element</field>
   <field type="int">atomtype</field>
   <set>
    <rc><c>Al</c><c>   1</c></rc>
    <rc><c>Al</c><c>   1</c></rc>
    <rc><c>Al</c><c>   1</c></rc>
    <rc><c>Al</c><c>   1</c></rc>
    <rc><c>Al</c><c>   1</c></rc>
    <rc><c>Al</c><c>   1</c></rc>
    <rc><c>Al</c><c>   1</c></rc>
    <rc><c>Al</c><c>   1</c></rc>
    <rc><c>Al</c><c>   1</c></rc>
    <rc><c>Al</c><c>   1</c></rc>
    <rc><c>Al</c><c>   1</c></rc>
    <rc><c>Al</c><c>   1</c></rc>
    <rc><c>Al</c><c>   1</c></rc>
    <rc><c>Al</c><c>   1</c></rc>
    <rc><c>Al</c><c>   1</c></rc>
    <rc><c>Al</c><c>   1</c></rc>
    <rc><c>Al</c><c>   1</c></rc>
    <rc><c>Al</c><c>   1</c></rc>
    <rc><c>Al</c><c>   1</c></rc>
    <rc><c>Al</c><c>   1</c></rc>
    <rc><c>Al</c><c>   1</c></rc>
    <rc><c>Al</c><c>   1</c></rc>
    <rc><c>Al</c><c>   1</c></rc>
    <rc><c>Al</c><c>   1</c></rc>
    <rc><c>Al</c><c>   1</c></rc>
    <rc><c>Al</c><c>   1</c></rc>
    <rc><c>Al</c><c>   1</c></rc>
    <rc><c>Al</c><c>   1</c></rc>
    <rc><c>Al</c><c>   1</c></rc>
    <rc><c>Al</c><c>   1</c></rc>
    <rc><c>Al</c><c>   1</c></rc>
    <rc><c>Al</c><c>   1</c></rc>
   </set>
  </array>
  <array name="atomtypes" >
   <dimension dim="1">type</dimension>
   <field type="int">atomspertype</field>
   <field type="string">element</field>
   <field>mass</field>
   <field>valence</field>
   <field type="string">pseudopotential</field>
   <set>
    <rc><c>  32</c><c>Al</c><c>     26.98100000</c><c>      3.00000000</c><c>  PAW_PBE Al 04Jan2001                  </c></rc>
   </set>
  </array>
 </atominfo>
 <structure name="initialpos" >
  <crystal>
   <varray name="basis" >
    <v>       8.07809510       0.00000000       0.00000000 </v>
    <v>       0.00000000       8.07809510       0.00000000 </v>
    <v>       0.00000000       0.00000000       8.07809510 </v>
   </varray>
   <i name="volume">    527.14110776 </i>
   <varray name="rec_basis" >
    <v>       0.12379156       0.00000000       0.00000000 </v>
    <v>       0.00000000       0.12379156       0.00000000 </v>
    <v>       0.00000000       0.00000000       0.12379156 </v>
   </varray>
  </crystal>
  <varray name="positions" >
   <v>       0.99389905       0.99203693       0.99015171 </v>
   <v>       0.00915464       0.24692628       0.22759094 </v>
   <v>       0.23695143       0.99856832       0.23991513 </v>
   <v>       0.23441666       0.25653653       0.98248936 </v>
   <v>       0.00743772       0.00552965       0.49621553 </v>
   <v>       0.00464452       0.25975417       0.75481308 </v>
   <v>       0.25834747       0.00102437       0.74829122 </v>
   <v>       0.25304308       0.25421099       0.49573158 </v>
   <v>       0.99066248       0.51824749       0.98907317 </v>
   <v>       0.00018370       0.75062290       0.23712808 </v>
   <v>       0.27301584       0.49162761       0.24285146 </v>
   <v>       0.25273491       0.74191975       0.99929363 </v>
   <v>       0.01800958       0.50146084       0.48122436 </v>
   <v>       0.00327406       0.75159963       0.74147955 </v>
   <v>       0.24575060       0.48776406       0.73899636 </v>
   <v>       0.24417416       0.74681427       0.50616050 </v>
   <v>       0.49212162       0.98898721       0.99216401 </v>
   <v>       0.51210291       0.23296568       0.24604302 </v>
   <v>       0.74209055       0.96357963       0.23540490 </v>
   <v>       0.76866460       0.23507768       0.98715698 </v>
   <v>       0.49572604       0.99792805       0.51894742 </v>
   <v>       0.49721169       0.25544301       0.75874831 </v>
   <v>       0.73000987       0.01041439       0.75865311 </v>
   <v>       0.76052163       0.24277968       0.48288493 </v>
   <v>       0.49157190       0.49268651       0.01479815 </v>
   <v>       0.48787324       0.75557959       0.26189050 </v>
   <v>       0.75593902       0.50213109       0.26182508 </v>
   <v>       0.73960079       0.76124448       0.98929947 </v>
   <v>       0.51072884       0.51060590       0.51423075 </v>
   <v>       0.49766509       0.74499034       0.75257940 </v>
   <v>       0.73694444       0.50949697       0.76547285 </v>
   <v>       0.74614392       0.75881808       0.49789744 </v>
  </varray>
 </structure>
 <calculation>
  <scstep>
   <time name="dav">   48.81   49.14</time>
   <time name="total">   48.88   49.21</time>
   <energy>
    <i name="alphaZ">     -6.52466918 </i>
    <i name="ewald">  -2344.90834698 </i>
    <i name="hartreedc">     -7.17241400 </i>
    <i name="XCdc">   -839.44566566 </i>
    <i name="pawpsdc">   2118.40502803 </i>
    <i name="pawaedc">  -1095.85986421 </i>
    <i name="eentropy">     -0.00813788 </i>
    <i name="bandstr">    600.40437598 </i>
    <i name="atom">   1713.23359074 </i>
    <i name="e_fr_energy">    138.12389684 </i>
    <i name="e_wo_entrp">    138.13203472 </i>
    <i name="e_0_energy">    138.12796578 </i>
   </energy>
  </scstep>
  <scstep>
   <time name="dav">   55.61   55.98</time>
   <time name="total">   55.62   55.99</time>
   <energy>
    <i name="e_fr_energy">   -106.37134842 </i>
    <i name="e_wo_entrp">   -106.35712976 </i>
    <i name="e_0_energy">   -106.36423909 </i>
   </energy>
  </scstep>
  <scstep>
   <time name="dav">   58.79   59.19</time>
   <time name="total">   58.80   59.20</time>
   <energy>
    <i name="e_fr_energy">   -119.28137899 </i>
    <i name="e_wo_entrp">   -119.26474129 </i>
    <i name="e_0_energy">   -119.27306014 </i>
   </energy>
  </scstep>
  <scstep>
   <time name="dav">   57.05   57.44</time>
   <time name="total">   57.06   57.45</time>
   <energy>
    <i name="e_fr_energy">   -119.52209083 </i>
    <i name="e_wo_entrp">   -119.50558005 </i>
    <i name="e_0_energy">   -119.51383544 </i>
   </energy>
  </scstep>
  <scstep>
   <time name="dav">   57.07   57.45</time>
   <time name="total">   59.69   60.08</time>
   <energy>
    <i name="e_fr_energy">   -119.52472982 </i>
    <i name="e_wo_entrp">   -119.50822624 </i>
    <i name="e_0_energy">   -119.51647803 </i>
   </energy>
  </scstep>
  <scstep>
   <time name="dav">   59.30   59.69</time>
   <time name="total">   62.41   62.82</time>
   <energy>
    <i name="e_fr_energy">   -118.83025545 </i>
    <i name="e_wo_entrp">   -118.81397084 </i>
    <i name="e_0_energy">   -118.82211315 </i>
   </energy>
  </scstep>
  <scstep>
   <time name="dav">   58.56   58.93</time>
   <time name="total">   61.64   62.04</time>
   <energy>
    <i name="e_fr_energy">   -118.57313278 </i>
    <i name="e_wo_entrp">   -118.55703580 </i>
    <i name="e_0_energy">   -118.56508429 </i>
   </energy>
  </scstep>
  <scstep>
   <time name="dav">   58.31   58.68</time>
   <time name="total">   61.38   61.78</time>
   <energy>
    <i name="e_fr_energy">   -118.52179044 </i>
    <i name="e_wo_entrp">   -118.50567087 </i>
    <i name="e_0_energy">   -118.51373066 </i>
   </energy>
  </scstep>
  <scstep>
   <time name="dav">   58.31   58.67</time>
   <time name="total">   61.37   61.76</time>
   <energy>
    <i name="e_fr_energy">   -118.51986183 </i>
    <i name="e_wo_entrp">   -118.50369280 </i>
    <i name="e_0_energy">   -118.51177732 </i>
   </energy>
  </scstep>
  <scstep>
   <time name="dav">   59.46   59.85</time>
   <time name="total">   62.54   62.96</time>
   <energy>
    <i name="e_fr_energy">   -118.51968718 </i>
    <i name="e_wo_entrp">   -118.50349971 </i>
    <i name="e_0_energy">   -118.51159344 </i>
   </energy>
  </scstep>
  <scstep>
   <time name="dav">   59.49   59.85</time>
   <time name="total">   62.55   62.93</time>
   <energy>
    <i name="e_fr_energy">   -118.51968803 </i>
    <i name="e_wo_entrp">   -118.50350097 </i>
    <i name="e_0_energy">   -118.51159450 </i>
   </energy>
  </scstep>
  <scstep>
   <time name="dav">   40.85   41.11</time>
   <time name="total">   40.93   41.19</time>
   <energy>
    <i name="alphaZ">     -6.52466918 </i>
    <i name="ewald">  -2344.90834698 </i>
    <i name="hartreedc">     -8.72903736 </i>
    <i name="XCdc">   -835.83091802 </i>
    <i name="pawpsdc">   2118.40502803 </i>
    <i name="pawaedc">  -1095.85986421 </i>
    <i name="eentropy">     -0.01618685 </i>
    <i name="bandstr">    341.71071592 </i>
    <i name="atom">   1713.23359074 </i>
    <i name="e_fr_energy">   -118.51968791 </i>
    <i name="e_wo_entrp">   -118.50350107 </i>
    <i name="e_0_energy">   -118.51159449 </i>
   </energy>
  </scstep>
  <structure>
   <crystal>
    <varray name="basis" >
     <v>       8.07809510       0.00000000       0.00000000 </v>
     <v>       0.00000000       8.07809510       0.00000000 </v>
     <v>       0.00000000       0.00000000       8.07809510 </v>
    </varray>
    <i name="volume">    527.14110776 </i>
    <varray name="rec_basis" >
     <v>       0.12379156       0.00000000       0.00000000 </v>
     <v>       0.00000000       0.12379156       0.00000000 </v>
     <v>       0.00000000       0.00000000       0.12379156 </v>
    </varray>
   </crystal>
   <varray name="positions" >
    <v>       0.99389905       0.99203693       0.99015171 </v>
    <v>       0.00915464       0.24692628       0.22759094 </v>
    <v>       0.23695143       0.99856832       0.23991513 </v>
    <v>       0.23441666       0.25653653       0.98248936 </v>
    <v>       0.00743772       0.00552965       0.49621553 </v>
    <v>       0.00464452       0.25975417       0.75481308 </v>
    <v>       0.25834747       0.00102437       0.74829122 </v>
    <v>       0.25304308       0.25421099       0.49573158 </v>
    <v>       0.99066248       0.51824749       0.98907317 </v>
    <v>       0.00018370       0.75062290       0.23712808 </v>
    <v>       0.27301584       0.49162761       0.24285146 </v>
    <v>       0.25273491       0.74191975       0.99929363 </v>
    <v>       0.01800958       0.50146084       0.48122436 </v>
    <v>       0.00327406       0.75159963       0.74147955 </v>
    <v>       0.24575060       0.48776406       0.73899636 </v>
    <v>       0.24417416       0.74681427       0.50616050 </v>
    <v>       0.49212162       0.98898721       0.99216401 </v>
    <v>       0.51210291       0.23296568       0.24604302 </v>
    <v>       0.74209055       0.96357963       0.23540490 </v>
    <v>       0.76866460       0.23507768       0.98715698 </v>
    <v>       0.49572604       0.99792805       0.51894742 </v>
    <v>       0.49721169       0.25544301       0.75874831 </v>
    <v>       0.73000987       0.01041439       0.75865311 </v>
    <v>       0.76052163       0.24277968       0.48288493 </v>
    <v>       0.49157190       0.49268651       0.01479815 </v>
    <v>       0.48787324       0.75557959       0.26189050 </v>
    <v>       0.75593902       0.50213109       0.26182508 </v>
    <v>       0.73960079       0.76124448       0.98929947 </v>
    <v>       0.51072884       0.51060590       0.51423075 </v>
    <v>       0.49766509       0.74499034       0.75257940 </v>
    <v>       0.73694444       0.50949697       0.76547285 </v>
    <v>       0.74614392       0.75881808       0.49789744 </v>
   </varray>
  </structure>
  <varray name="forces" >
   <v>       0.34454678      -0.03972698      -0.12942158 </v>
   <v>      -0.31197486       0.20386559       0.46310660 </v>
   <v>       0.46649255       0.05035161       0.12239563 </v>
   <v>       0.62093940      -0.27360126       0.55240281 </v>
   <v>      -0.27952944      -0.03037375       0.05016622 </v>
   <v>      -0.51450739      -0.29309688      -0.87969140 </v>
   <v>      -0.59884119      -0.05059515       0.07846565 </v>
   <v>       0.24319408      -0.29511811      -0.19370688 </v>
   <v>       0.11691404      -0.36820031       0.30270522 </v>
   <v>       0.14227651      -0.23142138       0.33503782 </v>
   <v>      -0.73403421      -0.02719713       0.50906748 </v>
   <v>      -0.13631400       0.08477854      -0.15248278 </v>
   <v>      -0.54767069      -0.12550543       0.22593908 </v>
   <v>      -0.29362011       0.09453415      -0.04613508 </v>
   <v>       0.18132622       0.68192784       0.24944122 </v>
   <v>       0.24011223       0.19496804      -0.34452925 </v>
   <v>      -0.23666322       0.47439659       0.53077711 </v>
   <v>      -0.11410796       0.02672132       0.03173538 </v>
   <v>       0.18913378       1.27925738       0.51909175 </v>
   <v>      -0.70619887       0.71858738       0.71317451 </v>
   <v>       0.07728733       0.21246056      -0.74642907 </v>
   <v>       0.15560965       0.06772710      -0.19687443 </v>
   <v>       0.70852957      -0.33294355      -0.78200096 </v>
   <v>      -0.07319042       0.04596327       0.37436685 </v>
   <v>       0.71837006       0.03909163      -0.49740146 </v>
   <v>       0.01804326      -0.23176863      -0.15572888 </v>
   <v>      -0.21482954      -0.05772372      -0.48113463 </v>
   <v>       0.12986514      -0.78218401       0.01389885 </v>
   <v>      -0.16510245      -0.49251835      -0.44676896 </v>
   <v>      -0.26109216       0.01949842       0.05517639 </v>
   <v>       0.43292925      -0.39222909      -0.41789053 </v>
   <v>       0.40210668      -0.16992569       0.34324729 </v>
  </varray>
  <varray name="stress" >
   <v>      15.00061900      -0.43285695      -1.35398217 </v>
   <v>      -0.43285692      11.89071104       2.86124263 </v>
   <v>      -1.35398217       2.86124263      16.58408999 </v>
  </varray>
  <energy>
   <i name="e_fr_energy">   -118.51968791 </i>
   <i name="e_wo_entrp">   -118.50350107 </i>
   <i name="e_0_energy">   -118.51159449 </i>
  </energy>
  <time name="totalsc">  764.15  769.18</time>
  <eigenvalues>
   <array>
    <dimension dim="1">band</dimension>
    <dimension dim="2">kpoint</dimension>
    <dimension dim="3">spin</dimension>
    <field>eigene</field>
    <field>occ</field>
    <set>
     <set comment="spin 1">
      <set comment="kpoint 1">
       <r>   -3.1774    1.0000 </r>
       <r>   -1.1242    1.0000 </r>
       <r>   -1.0517    1.0000 </r>
       <r>   -1.0118    1.0000 </r>
       <r>   -0.8337    1.0000 </r>
       <r>   -0.7695    1.0000 </r>
       <r>   -0.7463    1.0000 </r>
       <r>    1.0165    1.0000 </r>
       <r>    1.0282    1.0000 </r>
       <r>    1.1220    1.0000 </r>
       <r>    1.1642    1.0000 </r>
       <r>    1.2448    1.0000 </r>
       <r>    1.2895    1.0000 </r>
       <r>    1.3773    1.0000 </r>
       <r>    1.3840    1.0000 </r>
       <r>    1.4436    1.0000 </r>
       <r>    1.4866    1.0000 </r>
       <r>    1.5185    1.0000 </r>
       <r>    1.6129    1.0000 </r>
       <r>    3.3244    1.0000 </r>
       <r>    3.3858    1.0000 </r>
       <r>    3.3926    1.0000 </r>
       <r>    3.4261    1.0000 </r>
       <r>    3.5939    1.0000 </r>
       <r>    3.6287    1.0000 </r>
       <r>    3.6454    1.0000 </r>
       <r>    3.7029    1.0000 </r>
       <r>    5.0578    1.0000 </r>
       <r>    5.0652    1.0000 </r>
       <r>    5.0702    1.0000 </r>
       <r>    6.3030    1.0000 </r>
       <r>    6.3342    1.0000 </r>
       <r>    6.3410    1.0000 </r>
       <r>    6.8459    1.0000 </r>
       <r>    6.9244    1.0000 </r>
       <r>    6.9830    1.0000 </r>
       <r>    7.0312    1.0000 </r>
       <r>    7.0797    1.0000 </r>
       <r>    7.0955    1.0000 </r>
       <r>    7.2074    1.0000 </r>
       <r>    7.2222    1.0000 </r>
       <r>    7.2450    1.0000 </r>
       <r>    7.3133    1.0000 </r>
       <r>    7.4277    1.0000 </r>
       <r>    7.4530    1.0000 </r>
       <r>    7.8355    1.0000 </r>
       <r>    8.0480    0.1305 </r>
       <r>    8.1741    0.0000 </r>
       <r>    8.2022    0.0000 </r>
       <r>    8.2891    0.0000 </r>
       <r>    8.3313    0.0000 </r>
       <r>    8.9213    0.0000 </r>
       <r>    8.9597    0.0000 </r>
       <r>    8.9625    0.0000 </r>
       <r>    9.0222    0.0000 </r>
       <r>    9.0359    0.0000 </r>
       <r>    9.0719    0.0000 </r>
       <r>    9.1218    0.0000 </r>
       <r>    9.1348    0.0000 </r>
       <r>    9.1670    0.0000 </r>
       <r>    9.1839    0.0000 </r>
       <r>    9.2137    0.0000 </r>
       <r>    9.2658    0.0000 </r>
       <r>    9.3052    0.0000 </r>
       <r>    9.3471    0.0000 </r>
       <r>    9.4177    0.0000 </r>
       <r>    9.4673    0.0000 </r>
       <r>    9.4997    0.0000 </r>
       <r>    9.5784    0.0000 </r>
       <r>   10.5336    0.0000 </r>
       <r>   10.5377    0.0000 </r>
       <r>   10.6236    0.0000 </r>
      </set>
      <set comment="kpoint 2">
       <r>   -3.1497    1.0000 </r>
       <r>   -1.4394    1.0000 </r>
       <r>   -0.9974    1.0000 </r>
       <r>   -0.9594    1.0000 </r>
       <r>   -0.8283    1.0000 </r>
       <r>   -0.7927    1.0000 </r>
       <r>   -0.3616    1.0000 </r>
       <r>    0.6990    1.0000 </r>
       <r>    0.7274    1.0000 </r>
       <r>    0.8837    1.0000 </r>
       <r>    0.9235    1.0000 </r>
       <r>    1.2489    1.0000 </r>
       <r>    1.3198    1.0000 </r>
       <r>    1.3306    1.0000 </r>
       <r>    1.4196    1.0000 </r>
       <r>    1.7614    1.0000 </r>
       <r>    1.8164    1.0000 </r>
       <r>    1.9221    1.0000 </r>
       <r>    1.9462    1.0000 </r>
       <r>    2.9545    1.0000 </r>
       <r>    3.0309    1.0000 </r>
       <r>    3.0768    1.0000 </r>
       <r>    3.1278    1.0000 </r>
       <r>    3.9422    1.0000 </r>
       <r>    4.0180    1.0000 </r>
       <r>    4.0517    1.0000 </r>
       <r>    4.1095    1.0000 </r>
       <r>    4.5795    1.0000 </r>
       <r>    5.0892    1.0000 </r>
       <r>    5.0946    1.0000 </r>
       <r>    6.3035    1.0000 </r>
       <r>    6.3566    1.0000 </r>
       <r>    6.4785    1.0000 </r>
       <r>    6.5665    1.0000 </r>
       <r>    6.6805    1.0000 </r>
       <r>    6.7322    1.0000 </r>
       <r>    6.7587    1.0000 </r>
       <r>    6.7897    1.0000 </r>
       <r>    6.9068    1.0000 </r>
       <r>    7.1072    1.0000 </r>
       <r>    7.1758    1.0000 </r>
       <r>    7.2229    1.0000 </r>
       <r>    7.2923    1.0000 </r>
       <r>    7.6463    1.0000 </r>
       <r>    7.7059    1.0000 </r>
       <r>    7.8903    0.9996 </r>
       <r>    7.9587    0.9194 </r>
       <r>    8.3368    0.0000 </r>
       <r>    8.3466    0.0000 </r>
       <r>    8.4406    0.0000 </r>
       <r>    8.5224    0.0000 </r>
       <r>    8.6455    0.0000 </r>
       <r>    8.6732    0.0000 </r>
       <r>    8.7170    0.0000 </r>
       <r>    8.7829    0.0000 </r>
       <r>    8.8397    0.0000 </r>
       <r>    8.9156    0.0000 </r>
       <r>    8.9955    0.0000 </r>
       <r>    9.0383    0.0000 </r>
       <r>    9.2625    0.0000 </r>
       <r>    9.2733    0.0000 </r>
       <r>    9.3343    0.0000 </r>
       <r>    9.3693    0.0000 </r>
       <r>    9.3934    0.0000 </r>
       <r>    9.4237    0.0000 </r>
       <r>    9.6712    0.0000 </r>
       <r>    9.7132    0.0000 </r>
       <r>    9.8528    0.0000 </r>
       <r>    9.8658    0.0000 </r>
       <r>   10.2353    0.0000 </r>
       <r>   10.2489    0.0000 </r>
       <r>   10.3525    0.0000 </r>
      </set>
      <set comment="kpoint 3">
       <r>   -3.1497    1.0000 </r>
       <r>   -1.4306    1.0000 </r>
       <r>   -1.0088    1.0000 </r>
       <r>   -0.9712    1.0000 </r>
       <r>   -0.8725    1.0000 </r>
       <r>   -0.7266    1.0000 </r>
       <r>   -0.3684    1.0000 </r>
       <r>    0.7043    1.0000 </r>
       <r>    0.7451    1.0000 </r>
       <r>    0.7913    1.0000 </r>
       <r>    0.9827    1.0000 </r>
       <r>    1.2554    1.0000 </r>
       <r>    1.3179    1.0000 </r>
       <r>    1.3450    1.0000 </r>
       <r>    1.4483    1.0000 </r>
       <r>    1.7313    1.0000 </r>
       <r>    1.7978    1.0000 </r>
       <r>    1.8780    1.0000 </r>
       <r>    2.0028    1.0000 </r>
       <r>    2.9471    1.0000 </r>
       <r>    3.0288    1.0000 </r>
       <r>    3.0567    1.0000 </r>
       <r>    3.1606    1.0000 </r>
       <r>    3.9331    1.0000 </r>
       <r>    4.0037    1.0000 </r>
       <r>    4.0417    1.0000 </r>
       <r>    4.1388    1.0000 </r>
       <r>    4.5821    1.0000 </r>
       <r>    5.0828    1.0000 </r>
       <r>    5.0962    1.0000 </r>
       <r>    6.3132    1.0000 </r>
       <r>    6.3463    1.0000 </r>
       <r>    6.5065    1.0000 </r>
       <r>    6.5556    1.0000 </r>
       <r>    6.6205    1.0000 </r>
       <r>    6.7015    1.0000 </r>
       <r>    6.7683    1.0000 </r>
       <r>    6.8361    1.0000 </r>
       <r>    6.9308    1.0000 </r>
       <r>    7.1049    1.0000 </r>
       <r>    7.1478    1.0000 </r>
       <r>    7.2064    1.0000 </r>
       <r>    7.3667    1.0000 </r>
       <r>    7.6288    1.0000 </r>
       <r>    7.6832    1.0000 </r>
       <r>    7.8780    0.9999 </r>
       <r>    7.9672    0.8771 </r>
       <r>    8.3228    0.0000 </r>
       <r>    8.3799    0.0000 </r>
       <r>    8.4411    0.0000 </r>
       <r>    8.5095    0.0000 </r>
       <r>    8.6442    0.0000 </r>
       <r>    8.6932    0.0000 </r>
       <r>    8.7531    0.0000 </r>
       <r>    8.7809    0.0000 </r>
       <r>    8.8365    0.0000 </r>
       <r>    8.8987    0.0000 </r>
       <r>    8.9450    0.0000 </r>
       <r>    9.0859    0.0000 </r>
       <r>    9.2370    0.0000 </r>
       <r>    9.2899    0.0000 </r>
       <r>    9.3150    0.0000 </r>
       <r>    9.3489    0.0000 </r>
       <r>    9.3891    0.0000 </r>
       <r>    9.4443    0.0000 </r>
       <r>    9.6783    0.0000 </r>
       <r>    9.7126    0.0000 </r>
       <r>    9.7912    0.0000 </r>
       <r>    9.9446    0.0000 </r>
       <r>   10.1742    0.0000 </r>
       <r>   10.3276    0.0000 </r>
       <r>   10.3724    0.0000 </r>
      </set>
      <set comment="kpoint 4">
       <r>   -3.1500    1.0000 </r>
       <r>   -1.4158    1.0000 </r>
       <r>   -1.0910    1.0000 </r>
       <r>   -0.9182    1.0000 </r>
       <r>   -0.8221    1.0000 </r>
       <r>   -0.7610    1.0000 </r>
       <r>   -0.3728    1.0000 </r>
       <r>    0.6268    1.0000 </r>
       <r>    0.8010    1.0000 </r>
       <r>    0.8992    1.0000 </r>
       <r>    0.9521    1.0000 </r>
       <r>    1.2370    1.0000 </r>
       <r>    1.3099    1.0000 </r>
       <r>    1.3353    1.0000 </r>
       <r>    1.4051    1.0000 </r>
       <r>    1.6910    1.0000 </r>
       <r>    1.8507    1.0000 </r>
       <r>    1.9239    1.0000 </r>
       <r>    1.9625    1.0000 </r>
       <r>    2.9713    1.0000 </r>
       <r>    3.0203    1.0000 </r>
       <r>    3.0670    1.0000 </r>
       <r>    3.1405    1.0000 </r>
       <r>    3.9561    1.0000 </r>
       <r>    4.0013    1.0000 </r>
       <r>    4.0468    1.0000 </r>
       <r>    4.1141    1.0000 </r>
       <r>    4.5846    1.0000 </r>
       <r>    5.0869    1.0000 </r>
       <r>    5.0912    1.0000 </r>
       <r>    6.3119    1.0000 </r>
       <r>    6.3594    1.0000 </r>
       <r>    6.4304    1.0000 </r>
       <r>    6.5865    1.0000 </r>
       <r>    6.6102    1.0000 </r>
       <r>    6.7396    1.0000 </r>
       <r>    6.8035    1.0000 </r>
       <r>    6.8721    1.0000 </r>
       <r>    6.9577    1.0000 </r>
       <r>    7.0378    1.0000 </r>
       <r>    7.1697    1.0000 </r>
       <r>    7.2440    1.0000 </r>
       <r>    7.2627    1.0000 </r>
       <r>    7.6550    1.0000 </r>
       <r>    7.6710    1.0000 </r>
       <r>    7.9189    0.9943 </r>
       <r>    7.9606    0.9113 </r>
       <r>    8.2929    0.0000 </r>
       <r>    8.3500    0.0000 </r>
       <r>    8.4195    0.0000 </r>
       <r>    8.5202    0.0000 </r>
       <r>    8.6186    0.0000 </r>
       <r>    8.7146    0.0000 </r>
       <r>    8.7340    0.0000 </r>
       <r>    8.7936    0.0000 </r>
       <r>    8.8449    0.0000 </r>
       <r>    8.9142    0.0000 </r>
       <r>    8.9717    0.0000 </r>
       <r>    9.0474    0.0000 </r>
       <r>    9.2470    0.0000 </r>
       <r>    9.2951    0.0000 </r>
       <r>    9.3265    0.0000 </r>
       <r>    9.3652    0.0000 </r>
       <r>    9.3976    0.0000 </r>
       <r>    9.4532    0.0000 </r>
       <r>    9.6131    0.0000 </r>
       <r>    9.7812    0.0000 </r>
       <r>    9.8475    0.0000 </r>
       <r>    9.8640    0.0000 </r>
       <r>   10.2295    0.0000 </r>
       <r>   10.2421    0.0000 </r>
       <r>   10.3164    0.0000 </r>
      </set>
      <set comment="kpoint 5">
       <r>   -3.0667    1.0000 </r>
       <r>   -1.8301    1.0000 </r>
       <r>   -0.9153    1.0000 </r>
       <r>   -0.8712    1.0000 </r>
       <r>   -0.7573    1.0000 </r>
       <r>   -0.7126    1.0000 </r>
       <r>    0.1642    1.0000 </r>
       <r>    0.3117    1.0000 </r>
       <r>    0.3523    1.0000 </r>
       <r>    0.4990    1.0000 </r>
       <r>    0.5476    1.0000 </r>
       <r>    1.3385    1.0000 </r>
       <r>    1.4023    1.0000 </r>
       <r>    1.4152    1.0000 </r>
       <r>    1.4878    1.0000 </r>
       <r>    2.2887    1.0000 </r>
       <r>    2.3182    1.0000 </r>
       <r>    2.4529    1.0000 </r>
       <r>    2.4731    1.0000 </r>
       <r>    2.5715    1.0000 </r>
       <r>    2.6459    1.0000 </r>
       <r>    2.7176    1.0000 </r>
       <r>    2.7675    1.0000 </r>
       <r>    3.7910    1.0000 </r>
       <r>    4.4884    1.0000 </r>
       <r>    4.5654    1.0000 </r>
       <r>    4.5960    1.0000 </r>
       <r>    4.6534    1.0000 </r>
       <r>    5.1640    1.0000 </r>
       <r>    5.1700    1.0000 </r>
       <r>    5.7681    1.0000 </r>
       <r>    5.8186    1.0000 </r>
       <r>    5.9827    1.0000 </r>
       <r>    6.0013    1.0000 </r>
       <r>    6.2843    1.0000 </r>
       <r>    6.3449    1.0000 </r>
       <r>    6.4540    1.0000 </r>
       <r>    6.5310    1.0000 </r>
       <r>    7.1610    1.0000 </r>
       <r>    7.2155    1.0000 </r>
       <r>    7.2882    1.0000 </r>
       <r>    7.3304    1.0000 </r>
       <r>    7.6020    1.0000 </r>
       <r>    7.6234    1.0000 </r>
       <r>    7.7899    1.0000 </r>
       <r>    7.9690    0.8664 </r>
       <r>    8.0177    0.3950 </r>
       <r>    8.0462    0.1414 </r>
       <r>    8.1313    0.0003 </r>
       <r>    8.1733    0.0000 </r>
       <r>    8.2501    0.0000 </r>
       <r>    8.3730    0.0000 </r>
       <r>    8.3966    0.0000 </r>
       <r>    8.4846    0.0000 </r>
       <r>    8.5655    0.0000 </r>
       <r>    8.6013    0.0000 </r>
       <r>    8.6472    0.0000 </r>
       <r>    8.7295    0.0000 </r>
       <r>    8.7569    0.0000 </r>
       <r>    9.7006    0.0000 </r>
       <r>    9.7324    0.0000 </r>
       <r>    9.8027    0.0000 </r>
       <r>    9.8454    0.0000 </r>
       <r>    9.8934    0.0000 </r>
       <r>    9.9544    0.0000 </r>
       <r>   10.0719    0.0000 </r>
       <r>   10.1034    0.0000 </r>
       <r>   10.1723    0.0000 </r>
       <r>   10.1882    0.0000 </r>
       <r>   10.2599    0.0000 </r>
       <r>   10.2879    0.0000 </r>
       <r>   10.4106    0.0000 </r>
      </set>
      <set comment="kpoint 6">
       <r>   -3.0671    1.0000 </r>
       <r>   -1.8230    1.0000 </r>
       <r>   -0.9278    1.0000 </r>
       <r>   -0.8873    1.0000 </r>
[...]
       <r>    2.7219    1.0000 </r>
       <r>    2.8147    1.0000 </r>
       <r>    2.8688    1.0000 </r>
       <r>    2.9659    1.0000 </r>
       <r>    3.0166    1.0000 </r>
       <r>    3.0408    1.0000 </r>
       <r>    3.0899    1.0000 </r>
       <r>    3.1585    1.0000 </r>
       <r>    3.2622    1.0000 </r>
       <r>    3.3051    1.0000 </r>
       <r>    3.4194    1.0000 </r>
       <r>    3.4357    1.0000 </r>
       <r>    3.4683    1.0000 </r>
       <r>    3.6295    1.0000 </r>
       <r>    3.6981    1.0000 </r>
       <r>    3.7759    1.0000 </r>
       <r>    6.2632    1.0000 </r>
       <r>    6.3519    1.0000 </r>
       <r>    6.5112    1.0000 </r>
       <r>    6.6203    1.0000 </r>
       <r>    6.6757    1.0000 </r>
       <r>    6.7422    1.0000 </r>
       <r>    6.9569    1.0000 </r>
       <r>    6.9834    1.0000 </r>
       <r>    7.0625    1.0000 </r>
       <r>    7.1142    1.0000 </r>
       <r>    7.1609    1.0000 </r>
       <r>    7.1993    1.0000 </r>
       <r>    7.3011    1.0000 </r>
       <r>    7.3684    1.0000 </r>
       <r>    7.4316    1.0000 </r>
       <r>    7.4602    1.0000 </r>
       <r>    7.5295    1.0000 </r>
       <r>    7.5550    1.0000 </r>
       <r>    7.7429    1.0000 </r>
       <r>    7.8079    1.0000 </r>
       <r>    7.8765    0.9999 </r>
       <r>    8.0488    0.1258 </r>
       <r>    8.1712    0.0000 </r>
       <r>    8.2574    0.0000 </r>
       <r>   10.3530    0.0000 </r>
       <r>   10.7082    0.0000 </r>
       <r>   10.7657    0.0000 </r>
       <r>   10.8027    0.0000 </r>
       <r>   10.9025    0.0000 </r>
       <r>   10.9593    0.0000 </r>
       <r>   10.9918    0.0000 </r>
       <r>   11.0411    0.0000 </r>
       <r>   11.0919    0.0000 </r>
       <r>   11.1080    0.0000 </r>
       <r>   11.1834    0.0000 </r>
       <r>   11.1989    0.0000 </r>
       <r>   11.2582    0.0000 </r>
       <r>   11.3567    0.0000 </r>
       <r>   11.4130    0.0000 </r>
       <r>   11.4624    0.0000 </r>
      </set>
     </set>
    </set>
   </array>
  </eigenvalues>
  <separator name="orbital magnetization" >
   <v name="MAGDIPOLOUT">      0.00000000      0.00000000      0.00000000</v>
  </separator>
  <dos>
   <i name="efermi">      8.00827604 </i>
   <total>
    <array>
     <dimension dim="1">gridpoints</dimension>
     <dimension dim="2">spin</dimension>
     <field>energy</field>
     <field>total</field>
     <field>integrated</field>
     <set>
      <set comment="spin 1">
       <r>    -3.9248     0.0000     0.0000 </r>
       <r>    -3.8700     0.0000     0.0000 </r>
       <r>    -3.8152     0.0000     0.0000 </r>
       <r>    -3.7603     0.0000     0.0000 </r>
       <r>    -3.7055     0.0000     0.0000 </r>
       <r>    -3.6507     0.0000     0.0000 </r>
       <r>    -3.5959     0.0000     0.0000 </r>
       <r>    -3.5411     0.0000     0.0000 </r>
       <r>    -3.4863     0.0000     0.0000 </r>
       <r>    -3.4315     0.0000     0.0000 </r>
       <r>    -3.3767     0.0000     0.0000 </r>
       <r>    -3.3219     0.0000     0.0000 </r>
       <r>    -3.2671     0.0004     0.0000 </r>
       <r>    -3.2123     0.0227     0.0013 </r>
       <r>    -3.1574     0.2502     0.0150 </r>
       <r>    -3.1026     0.7393     0.0555 </r>
       <r>    -3.0478     1.1884     0.1206 </r>
       <r>    -2.9930     1.5413     0.2051 </r>
       <r>    -2.9382     1.5747     0.2914 </r>
       <r>    -2.8834     2.1749     0.4106 </r>
       <r>    -2.8286     2.1231     0.5270 </r>
       <r>    -2.7738     2.3873     0.6578 </r>
       <r>    -2.7190     2.3825     0.7884 </r>
       <r>    -2.6642     3.1240     0.9597 </r>
       <r>    -2.6093     3.1199     1.1307 </r>
       <r>    -2.5545     2.4373     1.2642 </r>
       <r>    -2.4997     2.4139     1.3965 </r>
       <r>    -2.4449     3.1850     1.5711 </r>
       <r>    -2.3901     3.4547     1.7605 </r>
       <r>    -2.3353     3.4234     1.9481 </r>
       <r>    -2.2805     3.2914     2.1285 </r>
       <r>    -2.2257     3.4700     2.3187 </r>
       <r>    -2.1709     3.6185     2.5170 </r>
       <r>    -2.1161     3.9062     2.7311 </r>
       <r>    -2.0613     4.6731     2.9872 </r>
       <r>    -2.0064     4.2745     3.2215 </r>
       <r>    -1.9516     4.0369     3.4428 </r>
       <r>    -1.8968     3.3234     3.6249 </r>
       <r>    -1.8420     3.1582     3.7980 </r>
       <r>    -1.7872     3.8998     4.0118 </r>
       <r>    -1.7324     5.3246     4.3036 </r>
       <r>    -1.6776     5.2858     4.5933 </r>
       <r>    -1.6228     4.1998     4.8235 </r>
       <r>    -1.5680     4.1935     5.0533 </r>
       <r>    -1.5132     4.2237     5.2848 </r>
       <r>    -1.4584     3.9454     5.5011 </r>
       <r>    -1.4035     5.1501     5.7834 </r>
       <r>    -1.3487     6.3533     6.1316 </r>
       <r>    -1.2939     5.9418     6.4572 </r>
       <r>    -1.2391     3.9429     6.6734 </r>
       <r>    -1.1843     3.7881     6.8810 </r>
       <r>    -1.1295     5.6606     7.1912 </r>
       <r>    -1.0747     6.5518     7.5503 </r>
       <r>    -1.0199     6.4712     7.9050 </r>
       <r>    -0.9651     4.5703     8.1555 </r>
       <r>    -0.9103     4.0436     8.3771 </r>
       <r>    -0.8555     5.2660     8.6658 </r>
       <r>    -0.8006     6.4923     9.0216 </r>
       <r>    -0.7458     6.6991     9.3888 </r>
       <r>    -0.6910     7.3951     9.7941 </r>
       <r>    -0.6362     5.5086    10.0960 </r>
       <r>    -0.5814     5.2245    10.3824 </r>
       <r>    -0.5266     5.0700    10.6603 </r>
       <r>    -0.4718     5.1986    10.9452 </r>
       <r>    -0.4170     7.6231    11.3630 </r>
       <r>    -0.3622     7.2188    11.7587 </r>
       <r>    -0.3074     6.7040    12.1261 </r>
       <r>    -0.2526     6.1411    12.4627 </r>
       <r>    -0.1977     6.0822    12.7961 </r>
       <r>    -0.1429     5.7625    13.1119 </r>
       <r>    -0.0881     6.4099    13.4632 </r>
       <r>    -0.0333     7.8723    13.8947 </r>
       <r>     0.0215     6.7631    14.2654 </r>
       <r>     0.0763     6.6567    14.6302 </r>
       <r>     0.1311     6.4986    14.9864 </r>
       <r>     0.1859     6.3470    15.3343 </r>
       <r>     0.2407     7.3324    15.7362 </r>
       <r>     0.2955     6.7544    16.1064 </r>
       <r>     0.3504     6.5224    16.4639 </r>
       <r>     0.4052     6.9516    16.8449 </r>
       <r>     0.4600     8.2457    17.2968 </r>
       <r>     0.5148     7.3409    17.6992 </r>
       <r>     0.5696     7.0299    18.0845 </r>
       <r>     0.6244     7.7852    18.5112 </r>
       <r>     0.6792     7.3368    18.9133 </r>
       <r>     0.7340     6.4339    19.2659 </r>
       <r>     0.7888     6.1557    19.6033 </r>
       <r>     0.8436     6.9229    19.9828 </r>
       <r>     0.8984     7.8303    20.4119 </r>
       <r>     0.9533     8.9475    20.9023 </r>
       <r>     1.0081     8.5480    21.3709 </r>
       <r>     1.0629     8.9413    21.8609 </r>
       <r>     1.1177     7.7813    22.2874 </r>
       <r>     1.1725     6.7068    22.6550 </r>
       <r>     1.2273     7.8851    23.0872 </r>
       <r>     1.2821     7.9235    23.5215 </r>
       <r>     1.3369     8.4231    23.9831 </r>
       <r>     1.3917     8.4924    24.4486 </r>
       <r>     1.4465     6.1471    24.7855 </r>
       <r>     1.5013     6.9797    25.1681 </r>
       <r>     1.5562     9.8336    25.7070 </r>
       <r>     1.6110    10.1295    26.2622 </r>
       <r>     1.6658     8.0281    26.7022 </r>
       <r>     1.7206     6.5255    27.0599 </r>
       <r>     1.7754     8.8825    27.5467 </r>
       <r>     1.8302    10.4960    28.1220 </r>
       <r>     1.8850     9.4698    28.6410 </r>
       <r>     1.9398     9.8464    29.1807 </r>
       <r>     1.9946     8.4261    29.6425 </r>
       <r>     2.0494     6.4646    29.9969 </r>
       <r>     2.1042     6.1035    30.3314 </r>
       <r>     2.1591     8.4912    30.7968 </r>
       <r>     2.2139     9.9341    31.3413 </r>
       <r>     2.2687     9.8897    31.8833 </r>
       <r>     2.3235     9.7223    32.4162 </r>
       <r>     2.3783     7.9248    32.8505 </r>
       <r>     2.4331     8.5832    33.3210 </r>
       <r>     2.4879    11.4160    33.9467 </r>
       <r>     2.5427    10.3010    34.5113 </r>
       <r>     2.5975     8.8064    34.9939 </r>
       <r>     2.6523     9.8347    35.5330 </r>
       <r>     2.7072     9.6718    36.0631 </r>
       <r>     2.7620     8.1427    36.5094 </r>
       <r>     2.8168     7.7498    36.9341 </r>
       <r>     2.8716     9.5623    37.4582 </r>
       <r>     2.9264     9.0779    37.9558 </r>
       <r>     2.9812     7.8394    38.3855 </r>
       <r>     3.0360     9.0009    38.8788 </r>
       <r>     3.0908    12.0602    39.5398 </r>
       <r>     3.1456    11.7255    40.1825 </r>
       <r>     3.2004    11.0528    40.7883 </r>
       <r>     3.2552    10.7815    41.3792 </r>
       <r>     3.3101    10.4436    41.9516 </r>
       <r>     3.3649     8.8357    42.4359 </r>
       <r>     3.4197     8.3288    42.8924 </r>
       <r>     3.4745     9.4374    43.4096 </r>
       <r>     3.5293    10.8150    44.0024 </r>
       <r>     3.5841    10.3274    44.5684 </r>
       <r>     3.6389     9.9414    45.1133 </r>
       <r>     3.6937    10.5734    45.6928 </r>
       <r>     3.7485    10.0106    46.2415 </r>
       <r>     3.8033     8.9627    46.7327 </r>
       <r>     3.8581     9.4835    47.2525 </r>
       <r>     3.9130    11.8535    47.9022 </r>
       <r>     3.9678    11.7942    48.5486 </r>
       <r>     4.0226    10.3410    49.1154 </r>
       <r>     4.0774    11.0476    49.7209 </r>
       <r>     4.1322    10.3290    50.2871 </r>
       <r>     4.1870    11.1398    50.8976 </r>
       <r>     4.2418    10.8436    51.4919 </r>
       <r>     4.2966    12.0284    52.1512 </r>
       <r>     4.3514    12.5588    52.8396 </r>
       <r>     4.4062     9.0662    53.3365 </r>
       <r>     4.4610     9.4319    53.8534 </r>
       <r>     4.5159     8.9675    54.3449 </r>
       <r>     4.5707     9.8198    54.8831 </r>
       <r>     4.6255    11.9428    55.5377 </r>
       <r>     4.6803    11.3585    56.1603 </r>
       <r>     4.7351    12.5343    56.8473 </r>
       <r>     4.7899    13.4472    57.5843 </r>
       <r>     4.8447    12.1099    58.2480 </r>
       <r>     4.8995    12.9318    58.9568 </r>
       <r>     4.9543    12.8670    59.6620 </r>
       <r>     5.0091    10.9090    60.2600 </r>
       <r>     5.0639     9.7587    60.7948 </r>
       <r>     5.1188    11.5916    61.4301 </r>
       <r>     5.1736    12.1577    62.0965 </r>
       <r>     5.2284    12.6871    62.7919 </r>
       <r>     5.2832    12.1624    63.4585 </r>
       <r>     5.3380    11.8511    64.1080 </r>
       <r>     5.3928    12.9508    64.8179 </r>
       <r>     5.4476    11.3810    65.4416 </r>
       <r>     5.5024    10.7387    66.0302 </r>
       <r>     5.5572    13.1719    66.7522 </r>
       <r>     5.6120    13.1085    67.4706 </r>
       <r>     5.6669    11.9319    68.1246 </r>
       <r>     5.7217    11.1622    68.7364 </r>
       <r>     5.7765    10.9007    69.3339 </r>
       <r>     5.8313    10.5651    69.9129 </r>
       <r>     5.8861    12.3596    70.5903 </r>
       <r>     5.9409    12.1180    71.2545 </r>
       <r>     5.9957     9.6277    71.7822 </r>
       <r>     6.0505    10.1557    72.3388 </r>
       <r>     6.1053    11.5908    72.9741 </r>
       <r>     6.1601    12.9690    73.6849 </r>
       <r>     6.2149    10.7717    74.2753 </r>
       <r>     6.2698    10.9021    74.8729 </r>
       <r>     6.3246    12.3301    75.5487 </r>
       <r>     6.3794    12.2006    76.2174 </r>
       <r>     6.4342    13.5135    76.9581 </r>
       <r>     6.4890    11.7647    77.6029 </r>
       <r>     6.5438     8.9734    78.0947 </r>
       <r>     6.5986    10.2574    78.6569 </r>
       <r>     6.6534    10.9352    79.2562 </r>
       <r>     6.7082    11.2031    79.8703 </r>
       <r>     6.7630    11.9251    80.5239 </r>
       <r>     6.8178    11.7851    81.1698 </r>
       <r>     6.8727    13.0856    81.8870 </r>
       <r>     6.9275    13.9851    82.6536 </r>
       <r>     6.9823    13.5400    83.3957 </r>
       <r>     7.0371    13.1983    84.1191 </r>
       <r>     7.0919    12.6083    84.8101 </r>
       <r>     7.1467    11.9882    85.4672 </r>
       <r>     7.2015    12.0714    86.1288 </r>
       <r>     7.2563    11.4606    86.7569 </r>
       <r>     7.3111    12.2097    87.4261 </r>
       <r>     7.3659    13.4878    88.1654 </r>
       <r>     7.4207    11.5709    88.7996 </r>
       <r>     7.4756    10.3067    89.3645 </r>
       <r>     7.5304    12.4804    90.0485 </r>
       <r>     7.5852    13.1611    90.7699 </r>
       <r>     7.6400    12.8722    91.4754 </r>
       <r>     7.6948    13.5389    92.2175 </r>
       <r>     7.7496    11.7861    92.8634 </r>
       <r>     7.8044     9.8919    93.4056 </r>
       <r>     7.8592    10.9858    94.0077 </r>
       <r>     7.9140    12.8591    94.7125 </r>
       <r>     7.9688    13.8766    95.4731 </r>
       <r>     8.0236    13.2284    96.1981 </r>
       <r>     8.0785    13.3111    96.9277 </r>
       <r>     8.1333    14.2873    97.7108 </r>
       <r>     8.1881    13.7030    98.4618 </r>
       <r>     8.2429    14.0639    99.2327 </r>
       <r>     8.2977    14.4642   100.0254 </r>
       <r>     8.3525    14.7283   100.8327 </r>
       <r>     8.4073    14.3547   101.6195 </r>
       <r>     8.4621    12.7919   102.3206 </r>
       <r>     8.5169    12.9503   103.0304 </r>
       <r>     8.5717    12.1806   103.6980 </r>
       <r>     8.6266    11.4841   104.3274 </r>
       <r>     8.6814    12.1487   104.9933 </r>
       <r>     8.7362    12.4064   105.6733 </r>
       <r>     8.7910    11.9372   106.3275 </r>
       <r>     8.8458    12.2164   106.9971 </r>
       <r>     8.9006    12.6072   107.6881 </r>
       <r>     8.9554    14.0738   108.4595 </r>
       <r>     9.0102    16.7928   109.3799 </r>
       <r>     9.0650    16.3336   110.2751 </r>
       <r>     9.1198    15.3354   111.1156 </r>
       <r>     9.1746    15.1559   111.9463 </r>
       <r>     9.2295    14.8793   112.7618 </r>
       <r>     9.2843    13.4150   113.4971 </r>
       <r>     9.3391    12.6653   114.1913 </r>
       <r>     9.3939    11.7767   114.8367 </r>
       <r>     9.4487    11.3985   115.4615 </r>
       <r>     9.5035    11.6976   116.1026 </r>
       <r>     9.5583    13.1774   116.8249 </r>
       <r>     9.6131    13.1299   117.5445 </r>
       <r>     9.6679    13.1854   118.2672 </r>
       <r>     9.7227    14.8233   119.0796 </r>
       <r>     9.7775    16.0999   119.9621 </r>
       <r>     9.8324    16.3831   120.8600 </r>
       <r>     9.8872    15.4150   121.7049 </r>
       <r>     9.9420    14.7551   122.5136 </r>
       <r>     9.9968    14.8641   123.3283 </r>
       <r>    10.0516    14.7060   124.1343 </r>
       <r>    10.1064    13.3228   124.8646 </r>
       <r>    10.1612    11.8732   125.5153 </r>
       <r>    10.2160    13.6754   126.2649 </r>
       <r>    10.2708    14.7949   127.0757 </r>
       <r>    10.3256    13.7409   127.8289 </r>
       <r>    10.3804    12.7545   128.5279 </r>
       <r>    10.4353    15.7155   129.3893 </r>
       <r>    10.4901    17.0135   130.3218 </r>
       <r>    10.5449    14.8424   131.1353 </r>
       <r>    10.5997    15.4421   131.9817 </r>
       <r>    10.6545    15.4129   132.8264 </r>
       <r>    10.7093    14.7259   133.6335 </r>
       <r>    10.7641    14.5216   134.4295 </r>
       <r>    10.8189    12.7867   135.1303 </r>
       <r>    10.8737    13.1003   135.8483 </r>
       <r>    10.9285    13.8266   136.6061 </r>
       <r>    10.9833    12.8625   137.3111 </r>
       <r>    11.0382    13.4336   138.0474 </r>
       <r>    11.0930    12.7738   138.7475 </r>
       <r>    11.1478    11.9541   139.4027 </r>
       <r>    11.2026    10.8102   139.9952 </r>
       <r>    11.2574    11.9414   140.6497 </r>
       <r>    11.3122    12.1172   141.3139 </r>
       <r>    11.3670    10.8173   141.9067 </r>
       <r>    11.4218    10.7272   142.4947 </r>
       <r>    11.4766     8.1172   142.9396 </r>
       <r>    11.5314     5.3289   143.2317 </r>
       <r>    11.5863     4.7142   143.4900 </r>
       <r>    11.6411     4.3406   143.7280 </r>
       <r>    11.6959     3.1751   143.9020 </r>
       <r>    11.7507     1.4191   143.9798 </r>
       <r>    11.8055     0.3320   143.9980 </r>
       <r>    11.8603     0.0364   144.0000 </r>
       <r>    11.9151     0.0009   144.0000 </r>
       <r>    11.9699     0.0000   144.0000 </r>
       <r>    12.0247     0.0000   144.0000 </r>
       <r>    12.0795     0.0000   144.0000 </r>
       <r>    12.1343     0.0000   144.0000 </r>
       <r>    12.1892     0.0000   144.0000 </r>
       <r>    12.2440     0.0000   144.0000 </r>
       <r>    12.2988     0.0000   144.0000 </r>
       <r>    12.3536     0.0000   144.0000 </r>
       <r>    12.4084     0.0000   144.0000 </r>
       <r>    12.4632     0.0000   144.0000 </r>
       <r>    12.5180     0.0000   144.0000 </r>
      </set>
     </set>
    </array>
   </total>
  </dos>
 </calculation>
 <structure name="finalpos" >
  <crystal>
   <varray name="basis" >
    <v>       8.07809510       0.00000000       0.00000000 </v>
    <v>       0.00000000       8.07809510       0.00000000 </v>
    <v>       0.00000000       0.00000000       8.07809510 </v>
   </varray>
   <i name="volume">    527.14110776 </i>
   <varray name="rec_basis" >
    <v>       0.12379156       0.00000000       0.00000000 </v>
    <v>       0.00000000       0.12379156       0.00000000 </v>
    <v>       0.00000000       0.00000000       0.12379156 </v>
   </varray>
  </crystal>
  <varray name="positions" >
   <v>       0.99389905       0.99203693       0.99015171 </v>
   <v>       0.00915464       0.24692628       0.22759094 </v>
   <v>       0.23695143       0.99856832       0.23991513 </v>
   <v>       0.23441666       0.25653653       0.98248936 </v>
   <v>       0.00743772       0.00552965       0.49621553 </v>
   <v>       0.00464452       0.25975417       0.75481308 </v>
   <v>       0.25834747       0.00102437       0.74829122 </v>
   <v>       0.25304308       0.25421099       0.49573158 </v>
   <v>       0.99066248       0.51824749       0.98907317 </v>
   <v>       0.00018370       0.75062290       0.23712808 </v>
   <v>       0.27301584       0.49162761       0.24285146 </v>
   <v>       0.25273491       0.74191975       0.99929363 </v>
   <v>       0.01800958       0.50146084       0.48122436 </v>
   <v>       0.00327406       0.75159963       0.74147955 </v>
   <v>       0.24575060       0.48776406       0.73899636 </v>
   <v>       0.24417416       0.74681427       0.50616050 </v>
   <v>       0.49212162       0.98898721       0.99216401 </v>
   <v>       0.51210291       0.23296568       0.24604302 </v>
   <v>       0.74209055       0.96357963       0.23540490 </v>
   <v>       0.76866460       0.23507768       0.98715698 </v>
   <v>       0.49572604       0.99792805       0.51894742 </v>
   <v>       0.49721169       0.25544301       0.75874831 </v>
   <v>       0.73000987       0.01041439       0.75865311 </v>
   <v>       0.76052163       0.24277968       0.48288493 </v>
   <v>       0.49157190       0.49268651       0.01479815 </v>
   <v>       0.48787324       0.75557959       0.26189050 </v>
   <v>       0.75593902       0.50213109       0.26182508 </v>
   <v>       0.73960079       0.76124448       0.98929947 </v>
   <v>       0.51072884       0.51060590       0.51423075 </v>
   <v>       0.49766509       0.74499034       0.75257940 </v>
   <v>       0.73694444       0.50949697       0.76547285 </v>
   <v>       0.74614392       0.75881808       0.49789744 </v>
  </varray>
 </structure>
</modeling>
