<?xml version="1.0" encoding="ISO-8859-1"?>
<modeling>
 <generator>
  <i name="program" type="string">vasp </i>
  <i name="version" type="string">6.2.0  </i>
  <i name="subversion" type="string">18Jan21 (build Mar 25 2021 14:28:09) complex                          parallel </i>
  <i name="platform" type="string">LinuxGNU </i>
  <i name="date" type="string">2021 12 20 </i>
  <i name="time" type="string">09:46:38 </i>
 </generator>
 <incar>
  <i type="string" name="SYSTEM">benzene</i>
  <i type="int" name="ISTART">     0</i>
  <i type="string" name="PREC">Accurate</i>
  <i type="string" name="ALGO">Normal</i>
  <i type="int" name="NELM">   200</i>
  <i type="int" name="IBRION">    -1</i>
  <i name="EDIFF">      0.00000100</i>
  <i type="int" name="NSW">     0</i>
  <i name="ENCUT">    600.00000000</i>
  <i type="logical" name="LREAL"> F  </i>
  <i type="int" name="ISMEAR">     0</i>
  <i name="SIGMA">      0.05000000</i>
  <i type="logical" name="LWAVE"> F  </i>
  <i type="logical" name="LCHARG"> T  </i>
  <i type="string" name="GGA">PE</i>
 </incar>
 <primitive_cell>
  <structure name="primitive_cell" >
   <crystal>
    <varray name="basis" >
     <v>      10.58354422       0.00000000       0.00000000 </v>
     <v>       0.00000000      10.58354422       0.00000000 </v>
     <v>       0.00000000       0.00000000      10.58354422 </v>
    </varray>
    <i name="volume">   1185.47769178 </i>
    <varray name="rec_basis" >
     <v>       0.09448631       0.00000000       0.00000000 </v>
     <v>       0.00000000       0.09448631       0.00000000 </v>
     <v>       0.00000000       0.00000000       0.09448631 </v>
    </varray>
   </crystal>
   <varray name="positions" >
    <v>       0.49940455       0.63297745       0.50311605 </v>
    <v>       0.38567120       0.56633815       0.49708160 </v>
    <v>       0.38102160       0.43287525       0.50174810 </v>
    <v>       0.50247665       0.36304865       0.50765045 </v>
    <v>       0.61738050       0.43095405       0.49610450 </v>
    <v>       0.61431150       0.56497435       0.50395785 </v>
    <v>       0.49815165       0.73811920       0.50814795 </v>
    <v>       0.29922880       0.62550805       0.48468370 </v>
    <v>       0.29638940       0.38064455       0.50018020 </v>
    <v>       0.49712960       0.26162770       0.51322325 </v>
    <v>       0.71003115       0.38299800       0.47754875 </v>
    <v>       0.69880325       0.61993460       0.50655780 </v>
   </varray>
  </structure>
  <varray name="primitive_index" >
   <v type="int" >        1 </v>
   <v type="int" >        2 </v>
   <v type="int" >        3 </v>
   <v type="int" >        4 </v>
   <v type="int" >        5 </v>
   <v type="int" >        6 </v>
   <v type="int" >        7 </v>
   <v type="int" >        8 </v>
   <v type="int" >        9 </v>
   <v type="int" >       10 </v>
   <v type="int" >       11 </v>
   <v type="int" >       12 </v>
  </varray>
 </primitive_cell>
 <kpoints>
  <generation param="Gamma">
   <v type="int" name="divisions">       1        1        1 </v>
   <v name="usershift">      0.00000000       0.00000000       0.00000000 </v>
   <v name="genvec1">      1.00000000       0.00000000       0.00000000 </v>
   <v name="genvec2">      0.00000000       1.00000000       0.00000000 </v>
   <v name="genvec3">      0.00000000       0.00000000       1.00000000 </v>
   <v name="shift">      0.00000000       0.00000000       0.00000000 </v>
  </generation>
  <varray name="kpointlist" >
   <v>       0.00000000       0.00000000       0.00000000 </v>
  </varray>
  <varray name="weights" >
   <v>       1.00000000 </v>
  </varray>
 </kpoints>
 <parameters>
  <separator name="general" >
   <i type="string" name="SYSTEM">benzene</i>
   <i type="logical" name="LCOMPAT"> F  </i>
  </separator>
  <separator name="electronic" >
   <i type="string" name="PREC">accura</i>
   <i name="ENMAX">    600.00000000</i>
   <i name="ENAUG">    644.87300000</i>
   <i name="EDIFF">      0.00000100</i>
   <i type="int" name="IALGO">    38</i>
   <i type="int" name="IWAVPR">    10</i>
   <i type="int" name="NBANDS">    24</i>
   <i type="int" name="NBANDSLOW">    -1</i>
   <i type="int" name="NBANDSHIGH">    -1</i>
   <i name="NELECT">     30.00000000</i>
   <i type="int" name="TURBO">     0</i>
   <i type="int" name="IRESTART">     0</i>
   <i type="int" name="NREBOOT">     0</i>
   <i type="int" name="NMIN">     0</i>
   <i name="EREF">      0.00000000</i>
   <separator name="electronic smearing" >
    <i type="int" name="ISMEAR">     0</i>
    <i name="SIGMA">      0.05000000</i>
    <i name="KSPACING">      0.50000000</i>
    <i type="logical" name="KGAMMA"> T  </i>
    <i type="logical" name="KBLOWUP"> T  </i>
   </separator>
   <separator name="electronic projectors" >
    <i type="logical" name="LREAL"> F  </i>
    <v name="ROPT">      0.00000000      0.00000000</v>
    <i type="int" name="LMAXPAW">  -100</i>
    <i type="int" name="LMAXMIX">     2</i>
    <i type="logical" name="NLSPLINE"> F  </i>
   </separator>
   <separator name="electronic startup" >
    <i type="int" name="ISTART">     0</i>
    <i type="int" name="ICHARG">     2</i>
    <i type="int" name="INIWAV">     1</i>
   </separator>
   <separator name="electronic spin" >
    <i type="int" name="ISPIN">     1</i>
    <i type="logical" name="LNONCOLLINEAR"> F  </i>
    <v name="MAGMOM">      1.00000000      1.00000000      1.00000000      1.00000000      1.00000000      1.00000000      1.00000000      1.00000000      1.00000000      1.00000000      1.00000000      1.00000000</v>
    <i name="NUPDOWN">     -1.00000000</i>
    <i type="logical" name="LSORBIT"> F  </i>
    <v name="SAXIS">      0.00000000      0.00000000      1.00000000</v>
    <i type="logical" name="LSPIRAL"> F  </i>
    <v name="QSPIRAL">      0.00000000      0.00000000      0.00000000</v>
    <i type="logical" name="LZEROZ"> F  </i>
   </separator>
   <separator name="electronic exchange-correlation" >
    <i type="logical" name="LASPH"> F  </i>
    <i type="logical" name="LMETAGGA"> F  </i>
   </separator>
   <separator name="electronic convergence" >
    <i type="int" name="NELM">   200</i>
    <i type="int" name="NELMDL">    -5</i>
    <i type="int" name="NELMIN">     2</i>
    <i name="ENINI">    600.00000000</i>
    <separator name="electronic convergence detail" >
     <i type="logical" name="LDIAG"> T  </i>
     <i type="logical" name="LSUBROT"> F  </i>
     <i name="WEIMIN">      0.00000000</i>
     <i name="EBREAK">      0.00000001</i>
     <i name="DEPER">      0.30000000</i>
     <i type="int" name="NRMM">     4</i>
     <i name="TIME">      0.40000000</i>
    </separator>
   </separator>
   <separator name="electronic mixer" >
    <i name="AMIX">      0.40000000</i>
    <i name="BMIX">      1.00000000</i>
    <i name="AMIN">      0.10000000</i>
    <i name="AMIX_MAG">      1.60000000</i>
    <i name="BMIX_MAG">      1.00000000</i>
    <separator name="electronic mixer details" >
     <i type="int" name="IMIX">     4</i>
     <i type="logical" name="MIXFIRST"> F  </i>
     <i type="int" name="MAXMIX">   -45</i>
     <i name="WC">    100.00000000</i>
     <i type="int" name="INIMIX">     1</i>
     <i type="int" name="MIXPRE">     1</i>
     <i type="int" name="MREMOVE">     5</i>
    </separator>
   </separator>
   <separator name="electronic dipolcorrection" >
    <i type="logical" name="LDIPOL"> F  </i>
    <i type="logical" name="LMONO"> F  </i>
    <i type="int" name="IDIPOL">     0</i>
    <i name="EPSILON">      1.00000000</i>
    <v name="DIPOL">   -100.00000000   -100.00000000   -100.00000000</v>
    <i name="EFIELD">      0.00000000</i>
   </separator>
  </separator>
  <separator name="grids" >
   <i type="int" name="NGX">    90</i>
   <i type="int" name="NGY">    90</i>
   <i type="int" name="NGZ">    90</i>
   <i type="int" name="NGXF">   180</i>
   <i type="int" name="NGYF">   180</i>
   <i type="int" name="NGZF">   180</i>
   <i type="logical" name="ADDGRID"> F  </i>
  </separator>
  <separator name="ionic" >
   <i type="int" name="NSW">     0</i>
   <i type="int" name="IBRION">    -1</i>
   <i type="int" name="MDALGO">     0</i>
   <i type="int" name="ISIF">     2</i>
   <i name="PSTRESS">      0.00000000</i>
   <i name="EDIFFG">      0.00001000</i>
   <i type="int" name="NFREE">     0</i>
   <i name="POTIM">      0.50000000</i>
   <i name="SMASS">     -3.00000000</i>
   <i name="SCALEE">      1.00000000</i>
  </separator>
  <separator name="ionic md" >
   <i name="TEBEG">      0.00010000</i>
   <i name="TEEND">      0.00010000</i>
   <i type="int" name="NBLOCK">     1</i>
   <i type="int" name="KBLOCK">     1</i>
   <i type="int" name="NPACO">   256</i>
   <i name="APACO">     16.00000000</i>
  </separator>
  <separator name="symmetry" >
   <i type="int" name="ISYM">     2</i>
   <i name="SYMPREC">      0.00001000</i>
  </separator>
  <separator name="dos" >
   <i type="int" name="LORBIT">     0</i>
   <v name="RWIGS">     -1.00000000     -1.00000000</v>
   <i type="int" name="NEDOS">   301</i>
   <i name="EMIN">     10.00000000</i>
   <i name="EMAX">    -10.00000000</i>
   <i name="EFERMI">      0.00000000</i>
  </separator>
  <separator name="writing" >
   <i type="int" name="NWRITE">     2</i>
   <i type="logical" name="LWAVE"> F  </i>
   <i type="logical" name="LDOWNSAMPLE"> F  </i>
   <i type="logical" name="LCHARG"> T  </i>
   <i type="logical" name="LPARD"> F  </i>
   <i type="logical" name="LVTOT"> F  </i>
   <i type="logical" name="LVHAR"> F  </i>
   <i type="logical" name="LELF"> F  </i>
   <i type="logical" name="LOPTICS"> F  </i>
   <v name="STM">      0.00000000      0.00000000      0.00000000      0.00000000      0.00000000      0.00000000      0.00000000</v>
  </separator>
  <separator name="performance" >
   <i type="int" name="NPAR">     4</i>
   <i type="int" name="NSIM">     4</i>
   <i type="int" name="NBLK">    -1</i>
   <i type="logical" name="LPLANE"> T  </i>
   <i type="logical" name="LSCALAPACK"> T  </i>
   <i type="logical" name="LSCAAWARE"> F  </i>
   <i type="logical" name="LSCALU"> F  </i>
   <i type="logical" name="LASYNC"> F  </i>
   <i type="logical" name="LORBITALREAL"> F  </i>
  </separator>
  <separator name="miscellaneous" >
   <i type="int" name="IDIOT">     3</i>
   <i type="int" name="PHON_NSTRUCT">    -1</i>
   <i type="logical" name="LMUSIC"> F  </i>
   <v name="POMASS">     12.01100000      1.00000000</v>
   <v name="DARWINR">      0.00000000      0.00000000</v>
   <v name="DARWINV">      1.00000000      1.00000000</v>
   <i type="logical" name="LCORR"> T  </i>
  </separator>
  <i type="logical" name="GGA_COMPAT"> T  </i>
  <i type="logical" name="LBERRY"> F  </i>
  <i type="int" name="ICORELEVEL">     0</i>
  <i type="logical" name="LDAU"> F  </i>
  <i type="int" name="I_CONSTRAINED_M">     0</i>
  <separator name="electronic exchange-correlation" >
   <i type="string" name="GGA">PE</i>
   <i type="int" name="VOSKOWN">     0</i>
   <i type="logical" name="LHFCALC"> F  </i>
   <i type="string" name="PRECFOCK"></i>
   <i type="logical" name="LSYMGRAD"> F  </i>
   <i type="logical" name="LHFONE"> F  </i>
   <i type="logical" name="LRHFCALC"> F  </i>
   <i type="logical" name="LTHOMAS"> F  </i>
   <i type="logical" name="LMODELHF"> F  </i>
   <i type="logical" name="LFOCKACE"> F  </i>
   <i name="ENCUT4O">     -1.00000000</i>
   <i type="int" name="EXXOEP">     0</i>
   <i type="int" name="FOURORBIT">     0</i>
   <i name="AEXX">      0.00000000</i>
   <i name="HFALPHA">      0.00000000</i>
   <i name="MCALPHA">      0.00000000</i>
   <i name="ALDAX">      1.00000000</i>
   <i name="AGGAX">      1.00000000</i>
   <i name="ALDAC">      1.00000000</i>
   <i name="AGGAC">      1.00000000</i>
   <i type="int" name="NKREDX">     1</i>
   <i type="int" name="NKREDY">     1</i>
   <i type="int" name="NKREDZ">     1</i>
   <i type="logical" name="SHIFTRED"> F  </i>
   <i type="logical" name="ODDONLY"> F  </i>
   <i type="logical" name="EVENONLY"> F  </i>
   <i type="int" name="LMAXFOCK">     0</i>
   <i type="int" name="NMAXFOCKAE">     0</i>
   <i type="logical" name="LFOCKAEDFT"> F  </i>
   <i name="HFSCREEN">      0.00000000</i>
   <i name="HFSCREENC">      0.00000000</i>
   <i type="int" name="NBANDSGWLOW">     0</i>
  </separator>
  <separator name="vdW DFT" >
   <i type="logical" name="LUSE_VDW"> F  </i>
   <i name="Zab_VDW">     -0.84910000</i>
   <i name="PARAM1">      0.12340000</i>
   <i name="PARAM2">      1.00000000</i>
   <i name="PARAM3">      0.00000000</i>
  </separator>
  <separator name="model GW" >
   <i type="int" name="MODEL_GW">     0</i>
   <i name="MODEL_EPS0">     59.27388459</i>
   <i name="MODEL_ALPHA">      1.00000000</i>
  </separator>
  <separator name="linear response parameters" >
   <i type="logical" name="LEPSILON"> F  </i>
   <i type="logical" name="LRPA"> F  </i>
   <i type="logical" name="LNABLA"> F  </i>
   <i type="logical" name="LVEL"> F  </i>
   <i type="int" name="KINTER">     0</i>
   <i name="CSHIFT">      0.10000000</i>
   <i name="OMEGAMAX">     -1.00000000</i>
   <i name="DEG_THRESHOLD">      0.00200000</i>
   <i name="RTIME">     -0.10000000</i>
   <i name="WPLASMAI">      0.00000000</i>
   <v name="DFIELD">      0.00000000      0.00000000      0.00000000</v>
   <v name="WPLASMA">      0.00000000      0.00000000      0.00000000      0.00000000      0.00000000      0.00000000      0.00000000      0.00000000      0.00000000</v>
  </separator>
  <separator name="orbital magnetization" >
   <i type="logical" name="NUCIND"> F  </i>
   <v name="MAGPOS">      0.00000000      0.00000000      0.00000000</v>
   <i type="logical" name="LNICSALL"> T  </i>
   <i type="logical" name="ORBITALMAG"> F  </i>
   <i type="logical" name="LMAGBLOCH"> F  </i>
   <i type="logical" name="LCHIMAG"> F  </i>
   <i type="logical" name="LGAUGE"> T  </i>
   <i type="int" name="MAGATOM">     0</i>
   <v name="MAGDIPOL">      0.00000000      0.00000000      0.00000000</v>
   <v name="AVECCONST">      0.00000000      0.00000000      0.00000000</v>
  </separator>
  <separator name="response functions" >
   <i type="logical" name="LFINITE_TEMPERATURE"> F  </i>
   <i type="logical" name="LADDER"> F  </i>
   <i type="logical" name="LRPAFORCE"> F  </i>
   <i type="logical" name="LFXC"> F  </i>
   <i type="logical" name="LHARTREE"> T  </i>
   <i type="int" name="IBSE">     0</i>
   <v type="int" name="KPOINT">    -1     0     0     0</v>
   <i type="logical" name="LTCTC"> F  </i>
   <i type="logical" name="LTCTE"> F  </i>
   <i type="logical" name="LTETE"> F  </i>
   <i type="logical" name="LTRIPLET"> F  </i>
   <i type="logical" name="LFXCEPS"> F  </i>
   <i type="logical" name="LFXHEG"> F  </i>
   <i type="int" name="NATURALO">     2</i>
   <i type="logical" name="LHOLEGF"> F  </i>
   <i type="logical" name="L2ORDER"> F  </i>
   <i type="logical" name="LDMP1"> F  </i>
   <i type="logical" name="LMP2LT"> F  </i>
   <i type="logical" name="LSMP2LT"> F  </i>
   <i type="logical" name="LGWLF"> F  </i>
   <i name="ENCUTGW">     -2.00000000</i>
   <i name="ENCUTGWSOFT">     -2.00000000</i>
   <i name="ENCUTLF">     -1.00000000</i>
   <i type="logical" name="LESF_SPLINES"> F  </i>
   <i type="int" name="LMAXMP2">    -1</i>
   <i name="SCISSOR">      0.00000000</i>
   <i type="int" name="NOMEGA">     0</i>
   <i type="int" name="NOMEGAR">     0</i>
   <i type="int" name="NBANDSGW">    -1</i>
   <i type="int" name="NBANDSO">    -1</i>
   <i type="int" name="NBANDSV">    -1</i>
   <i type="int" name="NELM">   200</i>
   <i type="int" name="NELMHF">     1</i>
   <i type="int" name="DIM">     3</i>
   <i type="int" name="IESPILON">     4</i>
   <i type="int" name="ANTIRES">     0</i>
   <i name="OMEGAMAX">    -30.00000000</i>
   <i name="OMEGAMIN">    -30.00000000</i>
   <i name="OMEGATL">   -200.00000000</i>
   <i type="int" name="OMEGAGRID">     0</i>
   <i name="CSHIFT">     -0.10000000</i>
   <i type="logical" name="LSELFENERGY"> F  </i>
   <i type="logical" name="LSPECTRAL"> F  </i>
   <i type="logical" name="LSPECTRALGW"> F  </i>
   <i type="logical" name="LSINGLES"> F  </i>
   <i type="logical" name="LFERMIGW"> F  </i>
   <i type="logical" name="ODDONLYGW"> F  </i>
   <i type="logical" name="EVENONLYGW"> F  </i>
   <i type="int" name="NKREDLFX">     1</i>
   <i type="int" name="NKREDLFY">     1</i>
   <i type="int" name="NKREDLFZ">     1</i>
   <i type="int" name="MAXMEM">  2800</i>
   <i type="int" name="TELESCOPE">     0</i>
   <i type="int" name="NTAUPAR">    -1</i>
   <i type="int" name="NOMEGAPAR">    -1</i>
   <i name="DAMP_NEWTON">      0.80000001</i>
   <i name="LAMBDA">      1.00000000</i>
  </separator>
  <separator name="External order field" >
   <i name="OFIELD_KAPPA">      0.00000000</i>
   <v name="OFIELD_K">      0.00000000      0.00000000      0.00000000</v>
   <i name="OFIELD_Q6_NEAR">      0.00000000</i>
   <i name="OFIELD_Q6_FAR">      0.00000000</i>
   <i name="OFIELD_A">      0.00000000</i>
  </separator>
 </parameters>
 <atominfo>
  <atoms>      12 </atoms>
  <types>       2 </types>
  <array name="atoms" >
   <dimension dim="1">ion</dimension>
   <field type="string">element</field>
   <field type="int">atomtype</field>
   <set>
    <rc><c>C </c><c>   1</c></rc>
    <rc><c>C </c><c>   1</c></rc>
    <rc><c>C </c><c>   1</c></rc>
    <rc><c>C </c><c>   1</c></rc>
    <rc><c>C </c><c>   1</c></rc>
    <rc><c>C </c><c>   1</c></rc>
    <rc><c>H </c><c>   2</c></rc>
    <rc><c>H </c><c>   2</c></rc>
    <rc><c>H </c><c>   2</c></rc>
    <rc><c>H </c><c>   2</c></rc>
    <rc><c>H </c><c>   2</c></rc>
    <rc><c>H </c><c>   2</c></rc>
   </set>
  </array>
  <array name="atomtypes" >
   <dimension dim="1">type</dimension>
   <field type="int">atomspertype</field>
   <field type="string">element</field>
   <field>mass</field>
   <field>valence</field>
   <field type="string">pseudopotential</field>
   <set>
    <rc><c>   6</c><c>C </c><c>     12.01100000</c><c>      4.00000000</c><c>  PAW_PBE C 08Apr2002                   </c></rc>
    <rc><c>   6</c><c>H </c><c>      1.00000000</c><c>      1.00000000</c><c>  PAW_PBE H 15Jun2001                   </c></rc>
   </set>
  </array>
 </atominfo>
 <structure name="initialpos" >
  <crystal>
   <varray name="basis" >
    <v>      10.58354422       0.00000000       0.00000000 </v>
    <v>       0.00000000      10.58354422       0.00000000 </v>
    <v>       0.00000000       0.00000000      10.58354422 </v>
   </varray>
   <i name="volume">   1185.47769178 </i>
   <varray name="rec_basis" >
    <v>       0.09448631       0.00000000       0.00000000 </v>
    <v>       0.00000000       0.09448631       0.00000000 </v>
    <v>       0.00000000       0.00000000       0.09448631 </v>
   </varray>
  </crystal>
  <varray name="positions" >
   <v>       0.49940455       0.63297745       0.50311605 </v>
   <v>       0.38567120       0.56633815       0.49708160 </v>
   <v>       0.38102160       0.43287525       0.50174810 </v>
   <v>       0.50247665       0.36304865       0.50765045 </v>
   <v>       0.61738050       0.43095405       0.49610450 </v>
   <v>       0.61431150       0.56497435       0.50395785 </v>
   <v>       0.49815165       0.73811920       0.50814795 </v>
   <v>       0.29922880       0.62550805       0.48468370 </v>
   <v>       0.29638940       0.38064455       0.50018020 </v>
   <v>       0.49712960       0.26162770       0.51322325 </v>
   <v>       0.71003115       0.38299800       0.47754875 </v>
   <v>       0.69880325       0.61993460       0.50655780 </v>
  </varray>
 </structure>
 <calculation>
  <scstep>
   <time name="dav">    0.23    0.26</time>
   <time name="total">    0.50    0.53</time>
   <energy>
    <i name="alphaZ">      3.48814018 </i>
    <i name="ewald">   1090.82634800 </i>
    <i name="hartreedc">  -1732.86617778 </i>
    <i name="XCdc">     90.81993412 </i>
    <i name="pawpsdc">    663.93644290 </i>
    <i name="pawaedc">   -667.40614445 </i>
    <i name="eentropy">     -0.00000000 </i>
    <i name="bandstr">   -195.64000324 </i>
    <i name="atom">    957.82965714 </i>
    <i name="e_fr_energy">    210.98819685 </i>
    <i name="e_wo_entrp">    210.98819685 </i>
    <i name="e_0_energy">    210.98819685 </i>
   </energy>
  </scstep>
  <scstep>
   <time name="dav">    0.27    0.27</time>
   <time name="total">    0.27    0.27</time>
   <energy>
    <i name="e_fr_energy">     -3.32474137 </i>
    <i name="e_wo_entrp">     -3.32474137 </i>
    <i name="e_0_energy">     -3.32474137 </i>
   </energy>
  </scstep>
  <scstep>
   <time name="dav">    0.22    0.23</time>
   <time name="total">    0.22    0.23</time>
   <energy>
    <i name="e_fr_energy">    -77.22917265 </i>
    <i name="e_wo_entrp">    -77.22917265 </i>
    <i name="e_0_energy">    -77.22917265 </i>
   </energy>
  </scstep>
  <scstep>
   <time name="dav">    0.20    0.20</time>
   <time name="total">    0.20    0.20</time>
   <energy>
    <i name="e_fr_energy">    -83.10897748 </i>
    <i name="e_wo_entrp">    -83.10897748 </i>
    <i name="e_0_energy">    -83.10897748 </i>
   </energy>
  </scstep>
  <scstep>
   <time name="dav">    0.24    0.25</time>
   <time name="total">    0.28    0.29</time>
   <energy>
    <i name="e_fr_energy">    -83.23246002 </i>
    <i name="e_wo_entrp">    -83.23246002 </i>
    <i name="e_0_energy">    -83.23246002 </i>
   </energy>
  </scstep>
  <scstep>
   <time name="dav">    0.22    0.22</time>
   <time name="total">    0.54    0.54</time>
   <energy>
    <i name="e_fr_energy">    -77.52400879 </i>
    <i name="e_wo_entrp">    -77.52400879 </i>
    <i name="e_0_energy">    -77.52400879 </i>
   </energy>
  </scstep>
  <scstep>
   <time name="dav">    0.27    0.27</time>
   <time name="total">    0.57    0.58</time>
   <energy>
    <i name="e_fr_energy">    -75.80981498 </i>
    <i name="e_wo_entrp">    -75.80981498 </i>
    <i name="e_0_energy">    -75.80981498 </i>
   </energy>
  </scstep>
  <scstep>
   <time name="dav">    0.24    0.24</time>
   <time name="total">    0.55    0.55</time>
   <energy>
    <i name="e_fr_energy">    -75.65345085 </i>
    <i name="e_wo_entrp">    -75.65345085 </i>
    <i name="e_0_energy">    -75.65345085 </i>
   </energy>
  </scstep>
  <scstep>
   <time name="dav">    0.24    0.24</time>
   <time name="total">    0.54    0.55</time>
   <energy>
    <i name="e_fr_energy">    -75.62600481 </i>
    <i name="e_wo_entrp">    -75.62600481 </i>
    <i name="e_0_energy">    -75.62600481 </i>
   </energy>
  </scstep>
  <scstep>
   <time name="dav">    0.22    0.22</time>
   <time name="total">    0.52    0.52</time>
   <energy>
    <i name="e_fr_energy">    -75.62140180 </i>
    <i name="e_wo_entrp">    -75.62140180 </i>
    <i name="e_0_energy">    -75.62140180 </i>
   </energy>
  </scstep>
  <scstep>
   <time name="dav">    0.20    0.20</time>
   <time name="total">    0.51    0.51</time>
   <energy>
    <i name="e_fr_energy">    -75.61480452 </i>
    <i name="e_wo_entrp">    -75.61480452 </i>
    <i name="e_0_energy">    -75.61480452 </i>
   </energy>
  </scstep>
  <scstep>
   <time name="dav">    0.22    0.22</time>
   <time name="total">    0.51    0.51</time>
   <energy>
    <i name="e_fr_energy">    -75.62075048 </i>
    <i name="e_wo_entrp">    -75.62075048 </i>
    <i name="e_0_energy">    -75.62075048 </i>
   </energy>
  </scstep>
  <scstep>
   <time name="dav">    0.22    0.22</time>
   <time name="total">    0.51    0.51</time>
   <energy>
    <i name="e_fr_energy">    -75.62955469 </i>
    <i name="e_wo_entrp">    -75.62955469 </i>
    <i name="e_0_energy">    -75.62955469 </i>
   </energy>
  </scstep>
  <scstep>
   <time name="dav">    0.22    0.22</time>
   <time name="total">    0.51    0.51</time>
   <energy>
    <i name="e_fr_energy">    -75.63687570 </i>
    <i name="e_wo_entrp">    -75.63687570 </i>
    <i name="e_0_energy">    -75.63687570 </i>
   </energy>
  </scstep>
  <scstep>
   <time name="dav">    0.22    0.22</time>
   <time name="total">    0.50    0.51</time>
   <energy>
    <i name="e_fr_energy">    -75.63941518 </i>
    <i name="e_wo_entrp">    -75.63941518 </i>
    <i name="e_0_energy">    -75.63941518 </i>
   </energy>
  </scstep>
  <scstep>
   <time name="dav">    0.22    0.22</time>
   <time name="total">    0.50    0.51</time>
   <energy>
    <i name="e_fr_energy">    -75.64024773 </i>
    <i name="e_wo_entrp">    -75.64024773 </i>
    <i name="e_0_energy">    -75.64024773 </i>
   </energy>
  </scstep>
  <scstep>
   <time name="dav">    0.22    0.22</time>
   <time name="total">    0.52    0.52</time>
   <energy>
    <i name="e_fr_energy">    -75.64070415 </i>
    <i name="e_wo_entrp">    -75.64070415 </i>
    <i name="e_0_energy">    -75.64070415 </i>
   </energy>
  </scstep>
  <scstep>
   <time name="dav">    0.22    0.22</time>
   <time name="total">    0.51    0.52</time>
   <energy>
    <i name="e_fr_energy">    -75.64077973 </i>
    <i name="e_wo_entrp">    -75.64077973 </i>
    <i name="e_0_energy">    -75.64077973 </i>
   </energy>
  </scstep>
  <scstep>
   <time name="dav">    0.20    0.20</time>
   <time name="total">    0.49    0.50</time>
   <energy>
    <i name="e_fr_energy">    -75.64081667 </i>
    <i name="e_wo_entrp">    -75.64081667 </i>
    <i name="e_0_energy">    -75.64081667 </i>
   </energy>
  </scstep>
  <scstep>
   <time name="dav">    0.22    0.22</time>
   <time name="total">    0.52    0.52</time>
   <energy>
    <i name="e_fr_energy">    -75.64082377 </i>
    <i name="e_wo_entrp">    -75.64082377 </i>
    <i name="e_0_energy">    -75.64082377 </i>
   </energy>
  </scstep>
  <scstep>
   <time name="dav">    0.20    0.20</time>
   <time name="total">    0.50    0.50</time>
   <energy>
    <i name="e_fr_energy">    -75.64082738 </i>
    <i name="e_wo_entrp">    -75.64082738 </i>
    <i name="e_0_energy">    -75.64082738 </i>
   </energy>
  </scstep>
  <scstep>
   <time name="dav">    0.18    0.18</time>
   <time name="total">    0.44    0.44</time>
   <energy>
    <i name="alphaZ">      3.48814018 </i>
    <i name="ewald">   1090.82634800 </i>
    <i name="hartreedc">  -1873.90654311 </i>
    <i name="XCdc">     97.51767108 </i>
    <i name="pawpsdc">   2366.25940690 </i>
    <i name="pawaedc">  -2370.46186757 </i>
    <i name="eentropy">     -0.00000000 </i>
    <i name="bandstr">   -347.19364082 </i>
    <i name="atom">    957.82965714 </i>
    <i name="e_fr_energy">    -75.64082821 </i>
    <i name="e_wo_entrp">    -75.64082821 </i>
    <i name="e_0_energy">    -75.64082821 </i>
   </energy>
  </scstep>
  <structure>
   <crystal>
    <varray name="basis" >
     <v>      10.58354422       0.00000000       0.00000000 </v>
     <v>       0.00000000      10.58354422       0.00000000 </v>
     <v>       0.00000000       0.00000000      10.58354422 </v>
    </varray>
    <i name="volume">   1185.47769178 </i>
    <varray name="rec_basis" >
     <v>       0.09448631       0.00000000       0.00000000 </v>
     <v>       0.00000000       0.09448631       0.00000000 </v>
     <v>       0.00000000       0.00000000       0.09448631 </v>
    </varray>
   </crystal>
   <varray name="positions" >
    <v>       0.49940455       0.63297745       0.50311605 </v>
    <v>       0.38567120       0.56633815       0.49708160 </v>
    <v>       0.38102160       0.43287525       0.50174810 </v>
    <v>       0.50247665       0.36304865       0.50765045 </v>
    <v>       0.61738050       0.43095405       0.49610450 </v>
    <v>       0.61431150       0.56497435       0.50395785 </v>
    <v>       0.49815165       0.73811920       0.50814795 </v>
    <v>       0.29922880       0.62550805       0.48468370 </v>
    <v>       0.29638940       0.38064455       0.50018020 </v>
    <v>       0.49712960       0.26162770       0.51322325 </v>
    <v>       0.71003115       0.38299800       0.47754875 </v>
    <v>       0.69880325       0.61993460       0.50655780 </v>
   </varray>
  </structure>
  <varray name="forces" >
   <v>       0.61889330      -0.35894907       0.24348439 </v>
   <v>      -0.98480886      -0.07137162      -0.21645133 </v>
   <v>       3.83941846       0.44887144       0.27301915 </v>
   <v>      -1.57229353       2.25144383      -0.65008783 </v>
   <v>      -0.30333842       0.12020240       0.20269073 </v>
   <v>      -1.10135528      -0.34994812      -0.32310015 </v>
   <v>       0.10682203      -0.75657169      -0.11034281 </v>
   <v>       0.34884987      -0.70963903       0.23325210 </v>
   <v>      -1.22026011      -0.57607962       0.02173899 </v>
   <v>       0.20095287      -0.48582789      -0.10915936 </v>
   <v>      -0.83670712       0.27175721       0.52176382 </v>
   <v>       0.90382679       0.21611217      -0.08680769 </v>
  </varray>
  <varray name="stress" >
   <v>      -4.95106966       4.24460959       0.27155627 </v>
   <v>       4.24460959      -7.61040482       0.12533518 </v>
   <v>       0.27155627       0.12533519      -0.50538841 </v>
  </varray>
  <energy>
   <i name="e_fr_energy">    -75.64082821 </i>
   <i name="e_wo_entrp">    -75.64082821 </i>
   <i name="e_0_energy">    -75.64082821 </i>
  </energy>
  <time name="totalsc">   15.62   15.85</time>
  <eigenvalues>
   <array>
    <dimension dim="1">band</dimension>
    <dimension dim="2">kpoint</dimension>
    <dimension dim="3">spin</dimension>
    <field>eigene</field>
    <field>occ</field>
    <set>
     <set comment="spin 1">
      <set comment="kpoint 1">
       <r>  -20.4806    1.0000 </r>
       <r>  -17.9209    1.0000 </r>
       <r>  -17.7903    1.0000 </r>
       <r>  -14.4594    1.0000 </r>
       <r>  -14.2208    1.0000 </r>
       <r>  -12.2844    1.0000 </r>
       <r>  -10.9470    1.0000 </r>
       <r>  -10.3090    1.0000 </r>
       <r>   -9.7806    1.0000 </r>
       <r>   -9.6659    1.0000 </r>
       <r>   -8.5100    1.0000 </r>
       <r>   -8.0289    1.0000 </r>
       <r>   -7.5605    1.0000 </r>
       <r>   -5.8987    1.0000 </r>
       <r>   -5.7397    1.0000 </r>
       <r>   -1.0929    0.0000 </r>
       <r>   -0.9246    0.0000 </r>
       <r>   -0.4245    0.0000 </r>
       <r>    0.6871    0.0000 </r>
       <r>    0.8206    0.0000 </r>
       <r>    0.8683    0.0000 </r>
       <r>    0.9006    0.0000 </r>
       <r>    0.9897    0.0000 </r>
       <r>    1.4586    0.0000 </r>
      </set>
     </set>
    </set>
   </array>
  </eigenvalues>
  <separator name="orbital magnetization" >
   <v name="MAGDIPOLOUT">      0.00000000      0.00000000      0.00000000</v>
  </separator>
  <dos>
   <i name="efermi">     -5.47875411 </i>
   <total>
    <array>
     <dimension dim="1">gridpoints</dimension>
     <dimension dim="2">spin</dimension>
     <field>energy</field>
     <field>total</field>
     <field>integrated</field>
     <set>
      <set comment="spin 1">
       <r>   -21.5776     0.0000     0.0000 </r>
       <r>   -21.4972     0.0000     0.0000 </r>
       <r>   -21.4167     0.0000     0.0000 </r>
       <r>   -21.3363     0.0000     0.0000 </r>
       <r>   -21.2558     0.0000     0.0000 </r>
       <r>   -21.1754     0.0000     0.0000 </r>
       <r>   -21.0949     0.0000     0.0000 </r>
       <r>   -21.0145     0.0000     0.0000 </r>
       <r>   -20.9341     0.0000     0.0000 </r>
       <r>   -20.8536     0.0000     0.0000 </r>
       <r>   -20.7732     0.0000     0.0000 </r>
       <r>   -20.6927     0.0000     0.0000 </r>
       <r>   -20.6123     0.0024     0.0002 </r>
       <r>   -20.5318     1.8329     0.1476 </r>
       <r>   -20.4514    17.9546     1.5920 </r>
       <r>   -20.3709     5.0483     1.9981 </r>
       <r>   -20.2905     0.0238     2.0000 </r>
       <r>   -20.2101     0.0000     2.0000 </r>
       <r>   -20.1296     0.0000     2.0000 </r>
       <r>   -20.0492     0.0000     2.0000 </r>
       <r>   -19.9687     0.0000     2.0000 </r>
       <r>   -19.8883     0.0000     2.0000 </r>
       <r>   -19.8078     0.0000     2.0000 </r>
       <r>   -19.7274     0.0000     2.0000 </r>
       <r>   -19.6469     0.0000     2.0000 </r>
       <r>   -19.5665     0.0000     2.0000 </r>
       <r>   -19.4861     0.0000     2.0000 </r>
       <r>   -19.4056     0.0000     2.0000 </r>
       <r>   -19.3252     0.0000     2.0000 </r>
       <r>   -19.2447     0.0000     2.0000 </r>
       <r>   -19.1643     0.0000     2.0000 </r>
       <r>   -19.0838     0.0000     2.0000 </r>
       <r>   -19.0034     0.0000     2.0000 </r>
       <r>   -18.9230     0.0000     2.0000 </r>
       <r>   -18.8425     0.0000     2.0000 </r>
       <r>   -18.7621     0.0000     2.0000 </r>
       <r>   -18.6816     0.0000     2.0000 </r>
       <r>   -18.6012     0.0000     2.0000 </r>
       <r>   -18.5207     0.0000     2.0000 </r>
       <r>   -18.4403     0.0000     2.0000 </r>
       <r>   -18.3598     0.0000     2.0000 </r>
       <r>   -18.2794     0.0000     2.0000 </r>
       <r>   -18.1990     0.0000     2.0000 </r>
       <r>   -18.1185     0.0000     2.0000 </r>
       <r>   -18.0381     0.0114     2.0009 </r>
       <r>   -17.9576     3.7054     2.2990 </r>
       <r>   -17.8772    18.6311     3.7978 </r>
       <r>   -17.7967    13.1322     4.8542 </r>
       <r>   -17.7163    13.7910     5.9636 </r>
       <r>   -17.6358     0.4527     6.0000 </r>
       <r>   -17.5554     0.0002     6.0000 </r>
       <r>   -17.4750     0.0000     6.0000 </r>
       <r>   -17.3945     0.0000     6.0000 </r>
       <r>   -17.3141     0.0000     6.0000 </r>
       <r>   -17.2336     0.0000     6.0000 </r>
       <r>   -17.1532     0.0000     6.0000 </r>
       <r>   -17.0727     0.0000     6.0000 </r>
       <r>   -16.9923     0.0000     6.0000 </r>
       <r>   -16.9119     0.0000     6.0000 </r>
       <r>   -16.8314     0.0000     6.0000 </r>
       <r>   -16.7510     0.0000     6.0000 </r>
       <r>   -16.6705     0.0000     6.0000 </r>
       <r>   -16.5901     0.0000     6.0000 </r>
       <r>   -16.5096     0.0000     6.0000 </r>
       <r>   -16.4292     0.0000     6.0000 </r>
       <r>   -16.3487     0.0000     6.0000 </r>
       <r>   -16.2683     0.0000     6.0000 </r>
       <r>   -16.1879     0.0000     6.0000 </r>
       <r>   -16.1074     0.0000     6.0000 </r>
       <r>   -16.0270     0.0000     6.0000 </r>
       <r>   -15.9465     0.0000     6.0000 </r>
       <r>   -15.8661     0.0000     6.0000 </r>
       <r>   -15.7856     0.0000     6.0000 </r>
       <r>   -15.7052     0.0000     6.0000 </r>
       <r>   -15.6247     0.0000     6.0000 </r>
       <r>   -15.5443     0.0000     6.0000 </r>
       <r>   -15.4639     0.0000     6.0000 </r>
       <r>   -15.3834     0.0000     6.0000 </r>
       <r>   -15.3030     0.0000     6.0000 </r>
       <r>   -15.2225     0.0000     6.0000 </r>
       <r>   -15.1421     0.0000     6.0000 </r>
       <r>   -15.0616     0.0000     6.0000 </r>
       <r>   -14.9812     0.0000     6.0000 </r>
       <r>   -14.9008     0.0000     6.0000 </r>
       <r>   -14.8203     0.0000     6.0000 </r>
       <r>   -14.7399     0.0000     6.0000 </r>
       <r>   -14.6594     0.0000     6.0000 </r>
       <r>   -14.5790     0.0090     6.0007 </r>
       <r>   -14.4985     3.3288     6.2685 </r>
       <r>   -14.4181    18.5099     7.7575 </r>
       <r>   -14.3376     3.0192     8.0004 </r>
       <r>   -14.2572     3.7722     8.3038 </r>
       <r>   -14.1768    18.4450     9.7876 </r>
       <r>   -14.0963     2.6348     9.9996 </r>
       <r>   -14.0159     0.0053    10.0000 </r>
       <r>   -13.9354     0.0000    10.0000 </r>
       <r>   -13.8550     0.0000    10.0000 </r>
       <r>   -13.7745     0.0000    10.0000 </r>
       <r>   -13.6941     0.0000    10.0000 </r>
       <r>   -13.6137     0.0000    10.0000 </r>
       <r>   -13.5332     0.0000    10.0000 </r>
       <r>   -13.4528     0.0000    10.0000 </r>
       <r>   -13.3723     0.0000    10.0000 </r>
       <r>   -13.2919     0.0000    10.0000 </r>
       <r>   -13.2114     0.0000    10.0000 </r>
       <r>   -13.1310     0.0000    10.0000 </r>
       <r>   -13.0505     0.0000    10.0000 </r>
       <r>   -12.9701     0.0000    10.0000 </r>
       <r>   -12.8897     0.0000    10.0000 </r>
       <r>   -12.8092     0.0000    10.0000 </r>
       <r>   -12.7288     0.0000    10.0000 </r>
       <r>   -12.6483     0.0000    10.0000 </r>
       <r>   -12.5679     0.0000    10.0000 </r>
       <r>   -12.4874     0.0000    10.0000 </r>
       <r>   -12.4070     0.0065    10.0005 </r>
       <r>   -12.3265     2.8894    10.2330 </r>
       <r>   -12.2461    18.4976    11.7210 </r>
       <r>   -12.1657     3.4587    11.9992 </r>
       <r>   -12.0852     0.0098    12.0000 </r>
       <r>   -12.0048     0.0000    12.0000 </r>
       <r>   -11.9243     0.0000    12.0000 </r>
       <r>   -11.8439     0.0000    12.0000 </r>
       <r>   -11.7634     0.0000    12.0000 </r>
       <r>   -11.6830     0.0000    12.0000 </r>
       <r>   -11.6026     0.0000    12.0000 </r>
       <r>   -11.5221     0.0000    12.0000 </r>
       <r>   -11.4417     0.0000    12.0000 </r>
       <r>   -11.3612     0.0000    12.0000 </r>
       <r>   -11.2808     0.0000    12.0000 </r>
       <r>   -11.2003     0.0000    12.0000 </r>
       <r>   -11.1199     0.0000    12.0000 </r>
       <r>   -11.0394     0.1110    12.0089 </r>
       <r>   -10.9590     9.0162    12.7342 </r>
       <r>   -10.8786    15.0773    13.9471 </r>
       <r>   -10.7981     0.6572    14.0000 </r>
       <r>   -10.7177     0.0003    14.0000 </r>
       <r>   -10.6372     0.0000    14.0000 </r>
       <r>   -10.5568     0.0000    14.0000 </r>
       <r>   -10.4763     0.0000    14.0000 </r>
       <r>   -10.3959     0.1743    14.0140 </r>
       <r>   -10.3154    10.4676    14.8561 </r>
       <r>   -10.2350    13.7693    15.9637 </r>
       <r>   -10.1546     0.4507    16.0000 </r>
       <r>   -10.0741     0.0002    16.0000 </r>
       <r>    -9.9937     0.0000    16.0000 </r>
       <r>    -9.9132     0.0022    16.0002 </r>
       <r>    -9.8328     1.7419    16.1403 </r>
       <r>    -9.7523    18.0355    17.5911 </r>
       <r>    -9.6719    15.8144    18.8633 </r>
       <r>    -9.5915    13.6922    19.9648 </r>
       <r>    -9.5110     0.4377    20.0000 </r>
       <r>    -9.4306     0.0001    20.0000 </r>
       <r>    -9.3501     0.0000    20.0000 </r>
       <r>    -9.2697     0.0000    20.0000 </r>
       <r>    -9.1892     0.0000    20.0000 </r>
       <r>    -9.1088     0.0000    20.0000 </r>
       <r>    -9.0283     0.0000    20.0000 </r>
       <r>    -8.9479     0.0000    20.0000 </r>
       <r>    -8.8675     0.0000    20.0000 </r>
       <r>    -8.7870     0.0000    20.0000 </r>
       <r>    -8.7066     0.0000    20.0000 </r>
       <r>    -8.6261     0.0127    20.0010 </r>
       <r>    -8.5457     3.8720    20.3125 </r>
       <r>    -8.4652    18.4195    21.7942 </r>
       <r>    -8.3848     2.5529    21.9996 </r>
       <r>    -8.3043     0.0050    22.0000 </r>
       <r>    -8.2239     0.0000    22.0000 </r>
       <r>    -8.1435     0.0148    22.0012 </r>
       <r>    -8.0630     4.1384    22.3341 </r>
       <r>    -7.9826    18.3420    23.8096 </r>
       <r>    -7.9021     2.3626    23.9997 </r>
       <r>    -7.8217     0.0042    24.0000 </r>
       <r>    -7.7412     0.0000    24.0000 </r>
       <r>    -7.6608     0.0569    24.0046 </r>
       <r>    -7.5804     7.0955    24.5754 </r>
       <r>    -7.4999    16.6366    25.9137 </r>
       <r>    -7.4195     1.0722    25.9999 </r>
       <r>    -7.3390     0.0008    26.0000 </r>
       <r>    -7.2586     0.0000    26.0000 </r>
       <r>    -7.1781     0.0000    26.0000 </r>
       <r>    -7.0977     0.0000    26.0000 </r>
       <r>    -7.0172     0.0000    26.0000 </r>
       <r>    -6.9368     0.0000    26.0000 </r>
       <r>    -6.8564     0.0000    26.0000 </r>
       <r>    -6.7759     0.0000    26.0000 </r>
       <r>    -6.6955     0.0000    26.0000 </r>
       <r>    -6.6150     0.0000    26.0000 </r>
       <r>    -6.5346     0.0000    26.0000 </r>
       <r>    -6.4541     0.0000    26.0000 </r>
       <r>    -6.3737     0.0000    26.0000 </r>
       <r>    -6.2932     0.0000    26.0000 </r>
       <r>    -6.2128     0.0000    26.0000 </r>
       <r>    -6.1324     0.0000    26.0000 </r>
       <r>    -6.0519     0.0002    26.0000 </r>
       <r>    -5.9715     0.4921    26.0396 </r>
       <r>    -5.8910    14.0785    27.1721 </r>
       <r>    -5.8106    10.6927    28.0323 </r>
       <r>    -5.7301    14.6788    29.2131 </r>
       <r>    -5.6497     9.6462    29.9891 </r>
       <r>    -5.5693     0.1356    30.0000 </r>
       <r>    -5.4888     0.0000    30.0000 </r>
       <r>    -5.4084     0.0000    30.0000 </r>
       <r>    -5.3279     0.0000    30.0000 </r>
       <r>    -5.2475     0.0000    30.0000 </r>
       <r>    -5.1670     0.0000    30.0000 </r>
       <r>    -5.0866     0.0000    30.0000 </r>
       <r>    -5.0061     0.0000    30.0000 </r>
       <r>    -4.9257     0.0000    30.0000 </r>
       <r>    -4.8453     0.0000    30.0000 </r>
       <r>    -4.7648     0.0000    30.0000 </r>
       <r>    -4.6844     0.0000    30.0000 </r>
       <r>    -4.6039     0.0000    30.0000 </r>
       <r>    -4.5235     0.0000    30.0000 </r>
       <r>    -4.4430     0.0000    30.0000 </r>
       <r>    -4.3626     0.0000    30.0000 </r>
       <r>    -4.2822     0.0000    30.0000 </r>
       <r>    -4.2017     0.0000    30.0000 </r>
       <r>    -4.1213     0.0000    30.0000 </r>
       <r>    -4.0408     0.0000    30.0000 </r>
       <r>    -3.9604     0.0000    30.0000 </r>
       <r>    -3.8799     0.0000    30.0000 </r>
       <r>    -3.7995     0.0000    30.0000 </r>
       <r>    -3.7190     0.0000    30.0000 </r>
       <r>    -3.6386     0.0000    30.0000 </r>
       <r>    -3.5582     0.0000    30.0000 </r>
       <r>    -3.4777     0.0000    30.0000 </r>
       <r>    -3.3973     0.0000    30.0000 </r>
       <r>    -3.3168     0.0000    30.0000 </r>
       <r>    -3.2364     0.0000    30.0000 </r>
       <r>    -3.1559     0.0000    30.0000 </r>
       <r>    -3.0755     0.0000    30.0000 </r>
       <r>    -2.9950     0.0000    30.0000 </r>
       <r>    -2.9146     0.0000    30.0000 </r>
       <r>    -2.8342     0.0000    30.0000 </r>
       <r>    -2.7537     0.0000    30.0000 </r>
       <r>    -2.6733     0.0000    30.0000 </r>
       <r>    -2.5928     0.0000    30.0000 </r>
       <r>    -2.5124     0.0000    30.0000 </r>
       <r>    -2.4319     0.0000    30.0000 </r>
       <r>    -2.3515     0.0000    30.0000 </r>
       <r>    -2.2711     0.0000    30.0000 </r>
       <r>    -2.1906     0.0000    30.0000 </r>
       <r>    -2.1102     0.0000    30.0000 </r>
       <r>    -2.0297     0.0000    30.0000 </r>
       <r>    -1.9493     0.0000    30.0000 </r>
       <r>    -1.8688     0.0000    30.0000 </r>
       <r>    -1.7884     0.0000    30.0000 </r>
       <r>    -1.7079     0.0000    30.0000 </r>
       <r>    -1.6275     0.0000    30.0000 </r>
       <r>    -1.5471     0.0000    30.0000 </r>
       <r>    -1.4666     0.0000    30.0000 </r>
       <r>    -1.3862     0.0000    30.0000 </r>
       <r>    -1.3057     0.0000    30.0000 </r>
       <r>    -1.2253     0.0023    30.0002 </r>
       <r>    -1.1448     1.7630    30.1420 </r>
       <r>    -1.0644    17.8804    31.5804 </r>
       <r>    -0.9839     6.3514    32.0913 </r>
       <r>    -0.9035    16.8866    33.4497 </r>
       <r>    -0.8231     6.7899    33.9959 </r>
       <r>    -0.7426     0.0506    34.0000 </r>
       <r>    -0.6622     0.0000    34.0000 </r>
       <r>    -0.5817     0.0001    34.0000 </r>
       <r>    -0.5013     0.3722    34.0299 </r>
       <r>    -0.4208    13.0935    35.0832 </r>
       <r>    -0.3404    11.1809    35.9827 </r>
       <r>    -0.2600     0.2153    36.0000 </r>
       <r>    -0.1795     0.0000    36.0000 </r>
       <r>    -0.0991     0.0000    36.0000 </r>
       <r>    -0.0186     0.0000    36.0000 </r>
       <r>     0.0618     0.0000    36.0000 </r>
       <r>     0.1423     0.0000    36.0000 </r>
       <r>     0.2227     0.0000    36.0000 </r>
       <r>     0.3032     0.0000    36.0000 </r>
       <r>     0.3836     0.0000    36.0000 </r>
       <r>     0.4640     0.0000    36.0000 </r>
       <r>     0.5445     0.0007    36.0001 </r>
       <r>     0.6249     0.9776    36.0787 </r>
       <r>     0.7054    16.3749    37.3960 </r>
       <r>     0.7858    11.7520    38.3413 </r>
       <r>     0.8663    34.1856    41.0914 </r>
       <r>     0.9467    36.2186    44.0049 </r>
       <r>     1.0272    21.1918    45.7097 </r>
       <r>     1.1076     3.5983    45.9991 </r>
       <r>     1.1880     0.0107    46.0000 </r>
       <r>     1.2685     0.0000    46.0000 </r>
       <r>     1.3489     0.0238    46.0019 </r>
       <r>     1.4294     5.0483    46.4080 </r>
       <r>     1.5098    17.9546    47.8524 </r>
       <r>     1.5903     1.8329    47.9998 </r>
       <r>     1.6707     0.0024    48.0000 </r>
       <r>     1.7511     0.0000    48.0000 </r>
       <r>     1.8316     0.0000    48.0000 </r>
       <r>     1.9120     0.0000    48.0000 </r>
       <r>     1.9925     0.0000    48.0000 </r>
       <r>     2.0729     0.0000    48.0000 </r>
       <r>     2.1534     0.0000    48.0000 </r>
       <r>     2.2338     0.0000    48.0000 </r>
       <r>     2.3143     0.0000    48.0000 </r>
       <r>     2.3947     0.0000    48.0000 </r>
       <r>     2.4751     0.0000    48.0000 </r>
       <r>     2.5556     0.0000    48.0000 </r>
      </set>
     </set>
    </array>
   </total>
  </dos>
 </calculation>
 <structure name="finalpos" >
  <crystal>
   <varray name="basis" >
    <v>      10.58354422       0.00000000       0.00000000 </v>
    <v>       0.00000000      10.58354422       0.00000000 </v>
    <v>       0.00000000       0.00000000      10.58354422 </v>
   </varray>
   <i name="volume">   1185.47769178 </i>
   <varray name="rec_basis" >
    <v>       0.09448631       0.00000000       0.00000000 </v>
    <v>       0.00000000       0.09448631       0.00000000 </v>
    <v>       0.00000000       0.00000000       0.09448631 </v>
   </varray>
  </crystal>
  <varray name="positions" >
   <v>       0.49940455       0.63297745       0.50311605 </v>
   <v>       0.38567120       0.56633815       0.49708160 </v>
   <v>       0.38102160       0.43287525       0.50174810 </v>
   <v>       0.50247665       0.36304865       0.50765045 </v>
   <v>       0.61738050       0.43095405       0.49610450 </v>
   <v>       0.61431150       0.56497435       0.50395785 </v>
   <v>       0.49815165       0.73811920       0.50814795 </v>
   <v>       0.29922880       0.62550805       0.48468370 </v>
   <v>       0.29638940       0.38064455       0.50018020 </v>
   <v>       0.49712960       0.26162770       0.51322325 </v>
   <v>       0.71003115       0.38299800       0.47754875 </v>
   <v>       0.69880325       0.61993460       0.50655780 </v>
  </varray>
 </structure>
</modeling>
