<?xml version="1.0" encoding="ISO-8859-1"?>
<modeling>
 <generator>
  <i name="program" type="string">vasp </i>
  <i name="version" type="string">6.2.0  </i>
  <i name="subversion" type="string">18Jan21 (build Mar 25 2021 14:28:09) complex                          parallel </i>
  <i name="platform" type="string">LinuxGNU </i>
  <i name="date" type="string">2022 08 19 </i>
  <i name="time" type="string">10:14:42 </i>
 </generator>
 <incar>
  <i type="string" name="SYSTEM">al</i>
  <i type="int" name="ISTART">     0</i>
  <i type="string" name="PREC">Accurate</i>
  <i type="string" name="ALGO">Normal</i>
  <i type="int" name="NSIM">     8</i>
  <i type="int" name="NELM">   200</i>
  <i type="int" name="IBRION">    -1</i>
  <i name="EDIFF">      0.00000100</i>
  <i type="int" name="NSW">     0</i>
  <i name="ENCUT">    600.00000000</i>
  <i type="string" name="LREAL">Auto</i>
  <i type="int" name="ISMEAR">     0</i>
  <i name="SIGMA">      0.05000000</i>
  <i type="int" name="LMAXPAW">    -1</i>
  <i type="logical" name="LWAVE"> F  </i>
  <i type="logical" name="LCHARG"> T  </i>
  <i type="string" name="GGA">PE</i>
 </incar>
 <primitive_cell>
  <structure name="primitive_cell" >
   <crystal>
    <varray name="basis" >
     <v>       8.07809510       0.00000000       0.00000000 </v>
     <v>       0.00000000       8.07809510       0.00000000 </v>
     <v>       0.00000000       0.00000000       8.07809510 </v>
    </varray>
    <i name="volume">    527.14110776 </i>
    <varray name="rec_basis" >
     <v>       0.12379156       0.00000000       0.00000000 </v>
     <v>       0.00000000       0.12379156       0.00000000 </v>
     <v>       0.00000000       0.00000000       0.12379156 </v>
    </varray>
   </crystal>
   <varray name="positions" >
    <v>       0.00632071       0.99694722       0.00732096 </v>
    <v>       0.00824263       0.25054287       0.25838765 </v>
    <v>       0.25215951       0.98107776       0.24520369 </v>
    <v>       0.23487622       0.23978154       0.98394628 </v>
    <v>       0.98904740       0.01653012       0.48391955 </v>
    <v>       0.99671075       0.24995363       0.75485965 </v>
    <v>       0.23623341       0.99980195       0.72811066 </v>
    <v>       0.24222247       0.26151563       0.50073503 </v>
    <v>       0.00337180       0.50277024       0.00142809 </v>
    <v>       0.98836732       0.74963689       0.22832533 </v>
    <v>       0.23512467       0.49356038       0.25449301 </v>
    <v>       0.26530653       0.74258124       0.00856887 </v>
    <v>       0.00278292       0.50364933       0.51204933 </v>
    <v>       0.00537695       0.74649984       0.75965804 </v>
    <v>       0.25043232       0.50614785       0.75062924 </v>
    <v>       0.24447726       0.75337624       0.48730868 </v>
    <v>       0.50797520       0.01148454       0.00217773 </v>
    <v>       0.48999934       0.25970501       0.25970211 </v>
    <v>       0.75500715       0.00820092       0.25097581 </v>
    <v>       0.76802771       0.23808778       0.99080112 </v>
    <v>       0.51077945       0.98593761       0.49608667 </v>
    <v>       0.50588464       0.24315023       0.74573334 </v>
    <v>       0.74513637       0.97842986       0.75855640 </v>
    <v>       0.74463237       0.25500418       0.48083505 </v>
    <v>       0.50066836       0.47908734       0.99760589 </v>
    <v>       0.52166281       0.75372548       0.21944978 </v>
    <v>       0.75687564       0.51416423       0.25449004 </v>
    <v>       0.74007157       0.74459963       0.98741630 </v>
    <v>       0.49172950       0.52035838       0.50052798 </v>
    <v>       0.49182348       0.75135419       0.75663500 </v>
    <v>       0.74923784       0.48316010       0.74874381 </v>
    <v>       0.75005179       0.74654986       0.49472086 </v>
   </varray>
  </structure>
  <varray name="primitive_index" >
   <v type="int" >        1 </v>
   <v type="int" >        2 </v>
   <v type="int" >        3 </v>
   <v type="int" >        4 </v>
   <v type="int" >        5 </v>
   <v type="int" >        6 </v>
   <v type="int" >        7 </v>
   <v type="int" >        8 </v>
   <v type="int" >        9 </v>
   <v type="int" >       10 </v>
   <v type="int" >       11 </v>
   <v type="int" >       12 </v>
   <v type="int" >       13 </v>
   <v type="int" >       14 </v>
   <v type="int" >       15 </v>
   <v type="int" >       16 </v>
   <v type="int" >       17 </v>
   <v type="int" >       18 </v>
   <v type="int" >       19 </v>
   <v type="int" >       20 </v>
   <v type="int" >       21 </v>
   <v type="int" >       22 </v>
   <v type="int" >       23 </v>
   <v type="int" >       24 </v>
   <v type="int" >       25 </v>
   <v type="int" >       26 </v>
   <v type="int" >       27 </v>
   <v type="int" >       28 </v>
   <v type="int" >       29 </v>
   <v type="int" >       30 </v>
   <v type="int" >       31 </v>
   <v type="int" >       32 </v>
  </varray>
 </primitive_cell>
 <kpoints>
  <generation param="Gamma">
   <v type="int" name="divisions">       9        9        9 </v>
   <v name="usershift">      0.00000000       0.00000000       0.00000000 </v>
   <v name="genvec1">      0.11111111       0.00000000       0.00000000 </v>
   <v name="genvec2">      0.00000000       0.11111111       0.00000000 </v>
   <v name="genvec3">      0.00000000       0.00000000       0.11111111 </v>
   <v name="shift">      0.00000000       0.00000000       0.00000000 </v>
  </generation>
  <varray name="kpointlist" >
   <v>       0.00000000       0.00000000       0.00000000 </v>
   <v>       0.11111111       0.00000000       0.00000000 </v>
   <v>       0.00000000       0.11111111       0.00000000 </v>
   <v>       0.00000000       0.00000000       0.11111111 </v>
   <v>       0.22222222       0.00000000       0.00000000 </v>
   <v>       0.00000000       0.22222222       0.00000000 </v>
   <v>       0.00000000       0.00000000       0.22222222 </v>
   <v>       0.33333333       0.00000000       0.00000000 </v>
   <v>       0.00000000       0.33333333       0.00000000 </v>
   <v>       0.00000000       0.00000000       0.33333333 </v>
   <v>       0.44444444       0.00000000       0.00000000 </v>
   <v>       0.00000000       0.44444444       0.00000000 </v>
   <v>       0.00000000       0.00000000       0.44444444 </v>
   <v>       0.11111111       0.11111111       0.00000000 </v>
   <v>       0.00000000       0.11111111       0.11111111 </v>
   <v>       0.11111111       0.00000000       0.11111111 </v>
   <v>      -0.11111111       0.11111111       0.00000000 </v>
   <v>      -0.11111111       0.00000000       0.11111111 </v>
   <v>       0.00000000      -0.11111111       0.11111111 </v>
   <v>       0.22222222       0.11111111       0.00000000 </v>
   <v>       0.00000000       0.22222222       0.11111111 </v>
   <v>       0.11111111       0.00000000       0.22222222 </v>
   <v>      -0.11111111       0.22222222       0.00000000 </v>
   <v>      -0.22222222       0.00000000       0.11111111 </v>
   <v>       0.00000000       0.11111111       0.22222222 </v>
   <v>       0.00000000      -0.22222222       0.11111111 </v>
   <v>      -0.11111111       0.00000000       0.22222222 </v>
   <v>       0.22222222       0.00000000       0.11111111 </v>
   <v>       0.00000000      -0.11111111       0.22222222 </v>
   <v>       0.22222222      -0.11111111       0.00000000 </v>
   <v>       0.11111111       0.22222222       0.00000000 </v>
   <v>       0.33333333       0.11111111       0.00000000 </v>
   <v>       0.00000000       0.33333333       0.11111111 </v>
   <v>       0.11111111       0.00000000       0.33333333 </v>
   <v>      -0.11111111       0.33333333       0.00000000 </v>
   <v>      -0.33333333       0.00000000       0.11111111 </v>
   <v>       0.00000000       0.11111111       0.33333333 </v>
   <v>       0.00000000      -0.33333333       0.11111111 </v>
   <v>      -0.11111111       0.00000000       0.33333333 </v>
   <v>       0.33333333       0.00000000       0.11111111 </v>
   <v>       0.00000000      -0.11111111       0.33333333 </v>
   <v>       0.33333333      -0.11111111       0.00000000 </v>
   <v>       0.11111111       0.33333333       0.00000000 </v>
   <v>       0.44444444       0.11111111       0.00000000 </v>
   <v>       0.00000000       0.44444444       0.11111111 </v>
   <v>       0.11111111       0.00000000       0.44444444 </v>
   <v>      -0.11111111       0.44444444       0.00000000 </v>
   <v>      -0.44444444       0.00000000       0.11111111 </v>
   <v>       0.00000000       0.11111111       0.44444444 </v>
   <v>       0.00000000      -0.44444444       0.11111111 </v>
   <v>      -0.11111111       0.00000000       0.44444444 </v>
   <v>       0.44444444       0.00000000       0.11111111 </v>
   <v>       0.00000000      -0.11111111       0.44444444 </v>
   <v>       0.44444444      -0.11111111       0.00000000 </v>
   <v>       0.11111111       0.44444444       0.00000000 </v>
   <v>       0.22222222       0.22222222       0.00000000 </v>
   <v>       0.00000000       0.22222222       0.22222222 </v>
   <v>       0.22222222       0.00000000       0.22222222 </v>
   <v>      -0.22222222       0.22222222       0.00000000 </v>
   <v>      -0.22222222       0.00000000       0.22222222 </v>
   <v>       0.00000000      -0.22222222       0.22222222 </v>
   <v>       0.33333333       0.22222222       0.00000000 </v>
   <v>       0.00000000       0.33333333       0.22222222 </v>
   <v>       0.22222222       0.00000000       0.33333333 </v>
   <v>      -0.22222222       0.33333333       0.00000000 </v>
   <v>      -0.33333333       0.00000000       0.22222222 </v>
   <v>       0.00000000       0.22222222       0.33333333 </v>
   <v>       0.00000000      -0.33333333       0.22222222 </v>
   <v>      -0.22222222       0.00000000       0.33333333 </v>
   <v>       0.33333333       0.00000000       0.22222222 </v>
   <v>       0.00000000      -0.22222222       0.33333333 </v>
   <v>       0.33333333      -0.22222222       0.00000000 </v>
   <v>       0.22222222       0.33333333       0.00000000 </v>
   <v>       0.44444444       0.22222222       0.00000000 </v>
   <v>       0.00000000       0.44444444       0.22222222 </v>
   <v>       0.22222222       0.00000000       0.44444444 </v>
   <v>      -0.22222222       0.44444444       0.00000000 </v>
   <v>      -0.44444444       0.00000000       0.22222222 </v>
   <v>       0.00000000       0.22222222       0.44444444 </v>
   <v>       0.00000000      -0.44444444       0.22222222 </v>
   <v>      -0.22222222       0.00000000       0.44444444 </v>
   <v>       0.44444444       0.00000000       0.22222222 </v>
   <v>       0.00000000      -0.22222222       0.44444444 </v>
   <v>       0.44444444      -0.22222222       0.00000000 </v>
   <v>       0.22222222       0.44444444       0.00000000 </v>
   <v>       0.33333333       0.33333333       0.00000000 </v>
   <v>       0.00000000       0.33333333       0.33333333 </v>
   <v>       0.33333333       0.00000000       0.33333333 </v>
   <v>      -0.33333333       0.33333333       0.00000000 </v>
   <v>      -0.33333333       0.00000000       0.33333333 </v>
   <v>       0.00000000      -0.33333333       0.33333333 </v>
   <v>       0.44444444       0.33333333       0.00000000 </v>
   <v>       0.00000000       0.44444444       0.33333333 </v>
   <v>       0.33333333       0.00000000       0.44444444 </v>
   <v>      -0.33333333       0.44444444       0.00000000 </v>
   <v>      -0.44444444       0.00000000       0.33333333 </v>
   <v>       0.00000000       0.33333333       0.44444444 </v>
   <v>       0.00000000      -0.44444444       0.33333333 </v>
   <v>      -0.33333333       0.00000000       0.44444444 </v>
   <v>       0.44444444       0.00000000       0.33333333 </v>
   <v>       0.00000000      -0.33333333       0.44444444 </v>
   <v>       0.44444444      -0.33333333       0.00000000 </v>
   <v>       0.33333333       0.44444444       0.00000000 </v>
   <v>       0.44444444       0.44444444       0.00000000 </v>
   <v>       0.00000000       0.44444444       0.44444444 </v>
   <v>       0.44444444       0.00000000       0.44444444 </v>
   <v>      -0.44444444       0.44444444       0.00000000 </v>
   <v>      -0.44444444       0.00000000       0.44444444 </v>
   <v>       0.00000000      -0.44444444       0.44444444 </v>
   <v>       0.11111111       0.11111111       0.11111111 </v>
   <v>      -0.11111111       0.11111111       0.11111111 </v>
   <v>      -0.11111111      -0.11111111       0.11111111 </v>
   <v>       0.11111111      -0.11111111       0.11111111 </v>
   <v>       0.22222222       0.11111111       0.11111111 </v>
   <v>       0.11111111       0.22222222       0.11111111 </v>
   <v>       0.11111111       0.11111111       0.22222222 </v>
   <v>      -0.11111111       0.22222222       0.11111111 </v>
   <v>      -0.22222222       0.11111111       0.11111111 </v>
   <v>      -0.11111111       0.11111111       0.22222222 </v>
   <v>      -0.22222222      -0.11111111       0.11111111 </v>
   <v>      -0.11111111      -0.22222222       0.11111111 </v>
   <v>      -0.11111111      -0.11111111       0.22222222 </v>
   <v>       0.11111111      -0.22222222       0.11111111 </v>
   <v>       0.22222222      -0.11111111       0.11111111 </v>
   <v>       0.11111111      -0.11111111       0.22222222 </v>
   <v>       0.33333333       0.11111111       0.11111111 </v>
   <v>       0.11111111       0.33333333       0.11111111 </v>
   <v>       0.11111111       0.11111111       0.33333333 </v>
   <v>      -0.11111111       0.33333333       0.11111111 </v>
   <v>      -0.33333333       0.11111111       0.11111111 </v>
   <v>      -0.11111111       0.11111111       0.33333333 </v>
   <v>      -0.33333333      -0.11111111       0.11111111 </v>
   <v>      -0.11111111      -0.33333333       0.11111111 </v>
   <v>      -0.11111111      -0.11111111       0.33333333 </v>
   <v>       0.11111111      -0.33333333       0.11111111 </v>
   <v>       0.33333333      -0.11111111       0.11111111 </v>
   <v>       0.11111111      -0.11111111       0.33333333 </v>
   <v>       0.44444444       0.11111111       0.11111111 </v>
   <v>       0.11111111       0.44444444       0.11111111 </v>
   <v>       0.11111111       0.11111111       0.44444444 </v>
   <v>      -0.11111111       0.44444444       0.11111111 </v>
   <v>      -0.44444444       0.11111111       0.11111111 </v>
   <v>      -0.11111111       0.11111111       0.44444444 </v>
   <v>      -0.44444444      -0.11111111       0.11111111 </v>
   <v>      -0.11111111      -0.44444444       0.11111111 </v>
   <v>      -0.11111111      -0.11111111       0.44444444 </v>
   <v>       0.11111111      -0.44444444       0.11111111 </v>
   <v>       0.44444444      -0.11111111       0.11111111 </v>
   <v>       0.11111111      -0.11111111       0.44444444 </v>
   <v>       0.22222222       0.22222222       0.11111111 </v>
   <v>       0.11111111       0.22222222       0.22222222 </v>
   <v>       0.22222222       0.11111111       0.22222222 </v>
   <v>      -0.22222222       0.22222222       0.11111111 </v>
   <v>      -0.22222222       0.11111111       0.22222222 </v>
   <v>      -0.11111111       0.22222222       0.22222222 </v>
   <v>      -0.22222222      -0.22222222       0.11111111 </v>
   <v>      -0.11111111      -0.22222222       0.22222222 </v>
   <v>      -0.22222222      -0.11111111       0.22222222 </v>
   <v>       0.22222222      -0.22222222       0.11111111 </v>
   <v>       0.22222222      -0.11111111       0.22222222 </v>
   <v>       0.11111111      -0.22222222       0.22222222 </v>
   <v>       0.33333333       0.22222222       0.11111111 </v>
   <v>       0.11111111       0.33333333       0.22222222 </v>
   <v>       0.22222222       0.11111111       0.33333333 </v>
   <v>      -0.22222222       0.33333333       0.11111111 </v>
   <v>      -0.33333333       0.11111111       0.22222222 </v>
   <v>      -0.11111111       0.22222222       0.33333333 </v>
   <v>      -0.33333333      -0.22222222       0.11111111 </v>
   <v>      -0.11111111      -0.33333333       0.22222222 </v>
   <v>      -0.22222222      -0.11111111       0.33333333 </v>
   <v>       0.22222222      -0.33333333       0.11111111 </v>
   <v>       0.33333333      -0.11111111       0.22222222 </v>
   <v>       0.11111111      -0.22222222       0.33333333 </v>
   <v>       0.11111111      -0.33333333      -0.22222222 </v>
   <v>       0.22222222      -0.11111111      -0.33333333 </v>
   <v>       0.33333333      -0.22222222      -0.11111111 </v>
   <v>       0.11111111       0.22222222      -0.33333333 </v>
   <v>       0.22222222       0.33333333      -0.11111111 </v>
   <v>       0.33333333       0.11111111      -0.22222222 </v>
   <v>      -0.22222222       0.11111111      -0.33333333 </v>
   <v>      -0.33333333       0.22222222      -0.11111111 </v>
   <v>      -0.11111111       0.33333333      -0.22222222 </v>
   <v>      -0.33333333      -0.11111111      -0.22222222 </v>
   <v>      -0.22222222      -0.33333333      -0.11111111 </v>
   <v>      -0.11111111      -0.22222222      -0.33333333 </v>
   <v>       0.44444444       0.22222222       0.11111111 </v>
   <v>       0.11111111       0.44444444       0.22222222 </v>
   <v>       0.22222222       0.11111111       0.44444444 </v>
   <v>      -0.22222222       0.44444444       0.11111111 </v>
   <v>      -0.44444444       0.11111111       0.22222222 </v>
   <v>      -0.11111111       0.22222222       0.44444444 </v>
   <v>      -0.44444444      -0.22222222       0.11111111 </v>
   <v>      -0.11111111      -0.44444444       0.22222222 </v>
   <v>      -0.22222222      -0.11111111       0.44444444 </v>
   <v>       0.22222222      -0.44444444       0.11111111 </v>
   <v>       0.44444444      -0.11111111       0.22222222 </v>
   <v>       0.11111111      -0.22222222       0.44444444 </v>
   <v>       0.11111111      -0.44444444      -0.22222222 </v>
   <v>       0.22222222      -0.11111111      -0.44444444 </v>
   <v>       0.44444444      -0.22222222      -0.11111111 </v>
   <v>       0.11111111       0.22222222      -0.44444444 </v>
   <v>       0.22222222       0.44444444      -0.11111111 </v>
   <v>       0.44444444       0.11111111      -0.22222222 </v>
   <v>      -0.22222222       0.11111111      -0.44444444 </v>
   <v>      -0.44444444       0.22222222      -0.11111111 </v>
   <v>      -0.11111111       0.44444444      -0.22222222 </v>
   <v>      -0.44444444      -0.11111111      -0.22222222 </v>
   <v>      -0.22222222      -0.44444444      -0.11111111 </v>
   <v>      -0.11111111      -0.22222222      -0.44444444 </v>
   <v>       0.33333333       0.33333333       0.11111111 </v>
   <v>       0.11111111       0.33333333       0.33333333 </v>
   <v>       0.33333333       0.11111111       0.33333333 </v>
   <v>      -0.33333333       0.33333333       0.11111111 </v>
   <v>      -0.33333333       0.11111111       0.33333333 </v>
   <v>      -0.11111111       0.33333333       0.33333333 </v>
   <v>      -0.33333333      -0.33333333       0.11111111 </v>
   <v>      -0.11111111      -0.33333333       0.33333333 </v>
   <v>      -0.33333333      -0.11111111       0.33333333 </v>
   <v>       0.33333333      -0.33333333       0.11111111 </v>
   <v>       0.33333333      -0.11111111       0.33333333 </v>
   <v>       0.11111111      -0.33333333       0.33333333 </v>
   <v>       0.44444444       0.33333333       0.11111111 </v>
   <v>       0.11111111       0.44444444       0.33333333 </v>
   <v>       0.33333333       0.11111111       0.44444444 </v>
   <v>      -0.33333333       0.44444444       0.11111111 </v>
   <v>      -0.44444444       0.11111111       0.33333333 </v>
   <v>      -0.11111111       0.33333333       0.44444444 </v>
   <v>      -0.44444444      -0.33333333       0.11111111 </v>
   <v>      -0.11111111      -0.44444444       0.33333333 </v>
   <v>      -0.33333333      -0.11111111       0.44444444 </v>
   <v>       0.33333333      -0.44444444       0.11111111 </v>
   <v>       0.44444444      -0.11111111       0.33333333 </v>
   <v>       0.11111111      -0.33333333       0.44444444 </v>
   <v>       0.11111111      -0.44444444      -0.33333333 </v>
   <v>       0.33333333      -0.11111111      -0.44444444 </v>
   <v>       0.44444444      -0.33333333      -0.11111111 </v>
   <v>       0.11111111       0.33333333      -0.44444444 </v>
   <v>       0.33333333       0.44444444      -0.11111111 </v>
   <v>       0.44444444       0.11111111      -0.33333333 </v>
   <v>      -0.33333333       0.11111111      -0.44444444 </v>
   <v>      -0.44444444       0.33333333      -0.11111111 </v>
   <v>      -0.11111111       0.44444444      -0.33333333 </v>
   <v>      -0.44444444      -0.11111111      -0.33333333 </v>
   <v>      -0.33333333      -0.44444444      -0.11111111 </v>
   <v>      -0.11111111      -0.33333333      -0.44444444 </v>
   <v>       0.44444444       0.44444444       0.11111111 </v>
   <v>       0.11111111       0.44444444       0.44444444 </v>
   <v>       0.44444444       0.11111111       0.44444444 </v>
   <v>      -0.44444444       0.44444444       0.11111111 </v>
   <v>      -0.44444444       0.11111111       0.44444444 </v>
   <v>      -0.11111111       0.44444444       0.44444444 </v>
   <v>      -0.44444444      -0.44444444       0.11111111 </v>
   <v>      -0.11111111      -0.44444444       0.44444444 </v>
   <v>      -0.44444444      -0.11111111       0.44444444 </v>
   <v>       0.44444444      -0.44444444       0.11111111 </v>
   <v>       0.44444444      -0.11111111       0.44444444 </v>
   <v>       0.11111111      -0.44444444       0.44444444 </v>
   <v>       0.22222222       0.22222222       0.22222222 </v>
   <v>      -0.22222222       0.22222222       0.22222222 </v>
   <v>      -0.22222222      -0.22222222       0.22222222 </v>
   <v>       0.22222222      -0.22222222       0.22222222 </v>
   <v>       0.33333333       0.22222222       0.22222222 </v>
   <v>       0.22222222       0.33333333       0.22222222 </v>
   <v>       0.22222222       0.22222222       0.33333333 </v>
   <v>      -0.22222222       0.33333333       0.22222222 </v>
   <v>      -0.33333333       0.22222222       0.22222222 </v>
   <v>      -0.22222222       0.22222222       0.33333333 </v>
   <v>      -0.33333333      -0.22222222       0.22222222 </v>
   <v>      -0.22222222      -0.33333333       0.22222222 </v>
   <v>      -0.22222222      -0.22222222       0.33333333 </v>
   <v>       0.22222222      -0.33333333       0.22222222 </v>
   <v>       0.33333333      -0.22222222       0.22222222 </v>
   <v>       0.22222222      -0.22222222       0.33333333 </v>
   <v>       0.44444444       0.22222222       0.22222222 </v>
   <v>       0.22222222       0.44444444       0.22222222 </v>
   <v>       0.22222222       0.22222222       0.44444444 </v>
   <v>      -0.22222222       0.44444444       0.22222222 </v>
   <v>      -0.44444444       0.22222222       0.22222222 </v>
   <v>      -0.22222222       0.22222222       0.44444444 </v>
   <v>      -0.44444444      -0.22222222       0.22222222 </v>
   <v>      -0.22222222      -0.44444444       0.22222222 </v>
   <v>      -0.22222222      -0.22222222       0.44444444 </v>
   <v>       0.22222222      -0.44444444       0.22222222 </v>
   <v>       0.44444444      -0.22222222       0.22222222 </v>
   <v>       0.22222222      -0.22222222       0.44444444 </v>
   <v>       0.33333333       0.33333333       0.22222222 </v>
   <v>       0.22222222       0.33333333       0.33333333 </v>
   <v>       0.33333333       0.22222222       0.33333333 </v>
   <v>      -0.33333333       0.33333333       0.22222222 </v>
   <v>      -0.33333333       0.22222222       0.33333333 </v>
   <v>      -0.22222222       0.33333333       0.33333333 </v>
   <v>      -0.33333333      -0.33333333       0.22222222 </v>
   <v>      -0.22222222      -0.33333333       0.33333333 </v>
   <v>      -0.33333333      -0.22222222       0.33333333 </v>
   <v>       0.33333333      -0.33333333       0.22222222 </v>
   <v>       0.33333333      -0.22222222       0.33333333 </v>
   <v>       0.22222222      -0.33333333       0.33333333 </v>
   <v>       0.44444444       0.33333333       0.22222222 </v>
   <v>       0.22222222       0.44444444       0.33333333 </v>
   <v>       0.33333333       0.22222222       0.44444444 </v>
   <v>      -0.33333333       0.44444444       0.22222222 </v>
   <v>      -0.44444444       0.22222222       0.33333333 </v>
   <v>      -0.22222222       0.33333333       0.44444444 </v>
   <v>      -0.44444444      -0.33333333       0.22222222 </v>
   <v>      -0.22222222      -0.44444444       0.33333333 </v>
   <v>      -0.33333333      -0.22222222       0.44444444 </v>
   <v>       0.33333333      -0.44444444       0.22222222 </v>
   <v>       0.44444444      -0.22222222       0.33333333 </v>
   <v>       0.22222222      -0.33333333       0.44444444 </v>
   <v>       0.22222222      -0.44444444      -0.33333333 </v>
   <v>       0.33333333      -0.22222222      -0.44444444 </v>
   <v>       0.44444444      -0.33333333      -0.22222222 </v>
   <v>       0.22222222       0.33333333      -0.44444444 </v>
   <v>       0.33333333       0.44444444      -0.22222222 </v>
   <v>       0.44444444       0.22222222      -0.33333333 </v>
   <v>      -0.33333333       0.22222222      -0.44444444 </v>
   <v>      -0.44444444       0.33333333      -0.22222222 </v>
   <v>      -0.22222222       0.44444444      -0.33333333 </v>
   <v>      -0.44444444      -0.22222222      -0.33333333 </v>
   <v>      -0.33333333      -0.44444444      -0.22222222 </v>
   <v>      -0.22222222      -0.33333333      -0.44444444 </v>
   <v>       0.44444444       0.44444444       0.22222222 </v>
   <v>       0.22222222       0.44444444       0.44444444 </v>
   <v>       0.44444444       0.22222222       0.44444444 </v>
   <v>      -0.44444444       0.44444444       0.22222222 </v>
   <v>      -0.44444444       0.22222222       0.44444444 </v>
   <v>      -0.22222222       0.44444444       0.44444444 </v>
   <v>      -0.44444444      -0.44444444       0.22222222 </v>
   <v>      -0.22222222      -0.44444444       0.44444444 </v>
   <v>      -0.44444444      -0.22222222       0.44444444 </v>
   <v>       0.44444444      -0.44444444       0.22222222 </v>
   <v>       0.44444444      -0.22222222       0.44444444 </v>
   <v>       0.22222222      -0.44444444       0.44444444 </v>
   <v>       0.33333333       0.33333333       0.33333333 </v>
   <v>      -0.33333333       0.33333333       0.33333333 </v>
   <v>      -0.33333333      -0.33333333       0.33333333 </v>
   <v>       0.33333333      -0.33333333       0.33333333 </v>
   <v>       0.44444444       0.33333333       0.33333333 </v>
   <v>       0.33333333       0.44444444       0.33333333 </v>
   <v>       0.33333333       0.33333333       0.44444444 </v>
   <v>      -0.33333333       0.44444444       0.33333333 </v>
   <v>      -0.44444444       0.33333333       0.33333333 </v>
   <v>      -0.33333333       0.33333333       0.44444444 </v>
   <v>      -0.44444444      -0.33333333       0.33333333 </v>
   <v>      -0.33333333      -0.44444444       0.33333333 </v>
   <v>      -0.33333333      -0.33333333       0.44444444 </v>
   <v>       0.33333333      -0.44444444       0.33333333 </v>
   <v>       0.44444444      -0.33333333       0.33333333 </v>
   <v>       0.33333333      -0.33333333       0.44444444 </v>
   <v>       0.44444444       0.44444444       0.33333333 </v>
   <v>       0.33333333       0.44444444       0.44444444 </v>
   <v>       0.44444444       0.33333333       0.44444444 </v>
   <v>      -0.44444444       0.44444444       0.33333333 </v>
   <v>      -0.44444444       0.33333333       0.44444444 </v>
   <v>      -0.33333333       0.44444444       0.44444444 </v>
   <v>      -0.44444444      -0.44444444       0.33333333 </v>
   <v>      -0.33333333      -0.44444444       0.44444444 </v>
   <v>      -0.44444444      -0.33333333       0.44444444 </v>
   <v>       0.44444444      -0.44444444       0.33333333 </v>
   <v>       0.44444444      -0.33333333       0.44444444 </v>
   <v>       0.33333333      -0.44444444       0.44444444 </v>
   <v>       0.44444444       0.44444444       0.44444444 </v>
   <v>      -0.44444444       0.44444444       0.44444444 </v>
   <v>      -0.44444444      -0.44444444       0.44444444 </v>
   <v>       0.44444444      -0.44444444       0.44444444 </v>
  </varray>
  <varray name="weights" >
   <v>       0.00137174 </v>
   <v>       0.00274348 </v>
   <v>       0.00274348 </v>
   <v>       0.00274348 </v>
   <v>       0.00274348 </v>
   <v>       0.00274348 </v>
   <v>       0.00274348 </v>
   <v>       0.00274348 </v>
   <v>       0.00274348 </v>
   <v>       0.00274348 </v>
   <v>       0.00274348 </v>
   <v>       0.00274348 </v>
   <v>       0.00274348 </v>
   <v>       0.00274348 </v>
   <v>       0.00274348 </v>
   <v>       0.00274348 </v>
   <v>       0.00274348 </v>
   <v>       0.00274348 </v>
   <v>       0.00274348 </v>
   <v>       0.00274348 </v>
   <v>       0.00274348 </v>
   <v>       0.00274348 </v>
   <v>       0.00274348 </v>
   <v>       0.00274348 </v>
   <v>       0.00274348 </v>
   <v>       0.00274348 </v>
   <v>       0.00274348 </v>
   <v>       0.00274348 </v>
   <v>       0.00274348 </v>
   <v>       0.00274348 </v>
   <v>       0.00274348 </v>
   <v>       0.00274348 </v>
   <v>       0.00274348 </v>
   <v>       0.00274348 </v>
   <v>       0.00274348 </v>
   <v>       0.00274348 </v>
   <v>       0.00274348 </v>
   <v>       0.00274348 </v>
   <v>       0.00274348 </v>
   <v>       0.00274348 </v>
   <v>       0.00274348 </v>
   <v>       0.00274348 </v>
   <v>       0.00274348 </v>
   <v>       0.00274348 </v>
   <v>       0.00274348 </v>
   <v>       0.00274348 </v>
   <v>       0.00274348 </v>
   <v>       0.00274348 </v>
   <v>       0.00274348 </v>
   <v>       0.00274348 </v>
   <v>       0.00274348 </v>
   <v>       0.00274348 </v>
   <v>       0.00274348 </v>
   <v>       0.00274348 </v>
   <v>       0.00274348 </v>
   <v>       0.00274348 </v>
   <v>       0.00274348 </v>
   <v>       0.00274348 </v>
   <v>       0.00274348 </v>
   <v>       0.00274348 </v>
   <v>       0.00274348 </v>
   <v>       0.00274348 </v>
   <v>       0.00274348 </v>
   <v>       0.00274348 </v>
   <v>       0.00274348 </v>
   <v>       0.00274348 </v>
   <v>       0.00274348 </v>
   <v>       0.00274348 </v>
   <v>       0.00274348 </v>
   <v>       0.00274348 </v>
   <v>       0.00274348 </v>
   <v>       0.00274348 </v>
   <v>       0.00274348 </v>
   <v>       0.00274348 </v>
   <v>       0.00274348 </v>
   <v>       0.00274348 </v>
   <v>       0.00274348 </v>
   <v>       0.00274348 </v>
   <v>       0.00274348 </v>
   <v>       0.00274348 </v>
   <v>       0.00274348 </v>
   <v>       0.00274348 </v>
   <v>       0.00274348 </v>
   <v>       0.00274348 </v>
   <v>       0.00274348 </v>
   <v>       0.00274348 </v>
   <v>       0.00274348 </v>
   <v>       0.00274348 </v>
   <v>       0.00274348 </v>
   <v>       0.00274348 </v>
   <v>       0.00274348 </v>
   <v>       0.00274348 </v>
   <v>       0.00274348 </v>
   <v>       0.00274348 </v>
   <v>       0.00274348 </v>
   <v>       0.00274348 </v>
   <v>       0.00274348 </v>
   <v>       0.00274348 </v>
   <v>       0.00274348 </v>
   <v>       0.00274348 </v>
   <v>       0.00274348 </v>
   <v>       0.00274348 </v>
   <v>       0.00274348 </v>
   <v>       0.00274348 </v>
   <v>       0.00274348 </v>
   <v>       0.00274348 </v>
   <v>       0.00274348 </v>
   <v>       0.00274348 </v>
   <v>       0.00274348 </v>
   <v>       0.00274348 </v>
   <v>       0.00274348 </v>
   <v>       0.00274348 </v>
   <v>       0.00274348 </v>
   <v>       0.00274348 </v>
   <v>       0.00274348 </v>
   <v>       0.00274348 </v>
   <v>       0.00274348 </v>
   <v>       0.00274348 </v>
   <v>       0.00274348 </v>
   <v>       0.00274348 </v>
   <v>       0.00274348 </v>
   <v>       0.00274348 </v>
   <v>       0.00274348 </v>
   <v>       0.00274348 </v>
   <v>       0.00274348 </v>
   <v>       0.00274348 </v>
   <v>       0.00274348 </v>
   <v>       0.00274348 </v>
   <v>       0.00274348 </v>
   <v>       0.00274348 </v>
   <v>       0.00274348 </v>
   <v>       0.00274348 </v>
   <v>       0.00274348 </v>
   <v>       0.00274348 </v>
   <v>       0.00274348 </v>
   <v>       0.00274348 </v>
   <v>       0.00274348 </v>
   <v>       0.00274348 </v>
   <v>       0.00274348 </v>
   <v>       0.00274348 </v>
   <v>       0.00274348 </v>
   <v>       0.00274348 </v>
   <v>       0.00274348 </v>
   <v>       0.00274348 </v>
   <v>       0.00274348 </v>
   <v>       0.00274348 </v>
   <v>       0.00274348 </v>
   <v>       0.00274348 </v>
   <v>       0.00274348 </v>
   <v>       0.00274348 </v>
   <v>       0.00274348 </v>
   <v>       0.00274348 </v>
   <v>       0.00274348 </v>
   <v>       0.00274348 </v>
   <v>       0.00274348 </v>
   <v>       0.00274348 </v>
   <v>       0.00274348 </v>
   <v>       0.00274348 </v>
   <v>       0.00274348 </v>
   <v>       0.00274348 </v>
   <v>       0.00274348 </v>
   <v>       0.00274348 </v>
   <v>       0.00274348 </v>
   <v>       0.00274348 </v>
   <v>       0.00274348 </v>
   <v>       0.00274348 </v>
   <v>       0.00274348 </v>
   <v>       0.00274348 </v>
   <v>       0.00274348 </v>
   <v>       0.00274348 </v>
   <v>       0.00274348 </v>
   <v>       0.00274348 </v>
   <v>       0.00274348 </v>
   <v>       0.00274348 </v>
   <v>       0.00274348 </v>
   <v>       0.00274348 </v>
   <v>       0.00274348 </v>
   <v>       0.00274348 </v>
   <v>       0.00274348 </v>
   <v>       0.00274348 </v>
   <v>       0.00274348 </v>
   <v>       0.00274348 </v>
   <v>       0.00274348 </v>
   <v>       0.00274348 </v>
   <v>       0.00274348 </v>
   <v>       0.00274348 </v>
   <v>       0.00274348 </v>
   <v>       0.00274348 </v>
   <v>       0.00274348 </v>
   <v>       0.00274348 </v>
   <v>       0.00274348 </v>
   <v>       0.00274348 </v>
   <v>       0.00274348 </v>
   <v>       0.00274348 </v>
   <v>       0.00274348 </v>
   <v>       0.00274348 </v>
   <v>       0.00274348 </v>
   <v>       0.00274348 </v>
   <v>       0.00274348 </v>
   <v>       0.00274348 </v>
   <v>       0.00274348 </v>
   <v>       0.00274348 </v>
   <v>       0.00274348 </v>
   <v>       0.00274348 </v>
   <v>       0.00274348 </v>
   <v>       0.00274348 </v>
   <v>       0.00274348 </v>
   <v>       0.00274348 </v>
   <v>       0.00274348 </v>
   <v>       0.00274348 </v>
   <v>       0.00274348 </v>
   <v>       0.00274348 </v>
   <v>       0.00274348 </v>
   <v>       0.00274348 </v>
   <v>       0.00274348 </v>
   <v>       0.00274348 </v>
   <v>       0.00274348 </v>
   <v>       0.00274348 </v>
   <v>       0.00274348 </v>
   <v>       0.00274348 </v>
   <v>       0.00274348 </v>
   <v>       0.00274348 </v>
   <v>       0.00274348 </v>
   <v>       0.00274348 </v>
   <v>       0.00274348 </v>
   <v>       0.00274348 </v>
   <v>       0.00274348 </v>
   <v>       0.00274348 </v>
   <v>       0.00274348 </v>
   <v>       0.00274348 </v>
   <v>       0.00274348 </v>
   <v>       0.00274348 </v>
   <v>       0.00274348 </v>
   <v>       0.00274348 </v>
   <v>       0.00274348 </v>
   <v>       0.00274348 </v>
   <v>       0.00274348 </v>
   <v>       0.00274348 </v>
   <v>       0.00274348 </v>
   <v>       0.00274348 </v>
   <v>       0.00274348 </v>
   <v>       0.00274348 </v>
   <v>       0.00274348 </v>
   <v>       0.00274348 </v>
   <v>       0.00274348 </v>
   <v>       0.00274348 </v>
   <v>       0.00274348 </v>
   <v>       0.00274348 </v>
   <v>       0.00274348 </v>
   <v>       0.00274348 </v>
   <v>       0.00274348 </v>
   <v>       0.00274348 </v>
   <v>       0.00274348 </v>
   <v>       0.00274348 </v>
   <v>       0.00274348 </v>
   <v>       0.00274348 </v>
   <v>       0.00274348 </v>
   <v>       0.00274348 </v>
   <v>       0.00274348 </v>
   <v>       0.00274348 </v>
   <v>       0.00274348 </v>
   <v>       0.00274348 </v>
   <v>       0.00274348 </v>
   <v>       0.00274348 </v>
   <v>       0.00274348 </v>
   <v>       0.00274348 </v>
   <v>       0.00274348 </v>
   <v>       0.00274348 </v>
   <v>       0.00274348 </v>
   <v>       0.00274348 </v>
   <v>       0.00274348 </v>
   <v>       0.00274348 </v>
   <v>       0.00274348 </v>
   <v>       0.00274348 </v>
   <v>       0.00274348 </v>
   <v>       0.00274348 </v>
   <v>       0.00274348 </v>
   <v>       0.00274348 </v>
   <v>       0.00274348 </v>
   <v>       0.00274348 </v>
   <v>       0.00274348 </v>
   <v>       0.00274348 </v>
   <v>       0.00274348 </v>
   <v>       0.00274348 </v>
   <v>       0.00274348 </v>
   <v>       0.00274348 </v>
   <v>       0.00274348 </v>
   <v>       0.00274348 </v>
   <v>       0.00274348 </v>
   <v>       0.00274348 </v>
   <v>       0.00274348 </v>
   <v>       0.00274348 </v>
   <v>       0.00274348 </v>
   <v>       0.00274348 </v>
   <v>       0.00274348 </v>
   <v>       0.00274348 </v>
   <v>       0.00274348 </v>
   <v>       0.00274348 </v>
   <v>       0.00274348 </v>
   <v>       0.00274348 </v>
   <v>       0.00274348 </v>
   <v>       0.00274348 </v>
   <v>       0.00274348 </v>
   <v>       0.00274348 </v>
   <v>       0.00274348 </v>
   <v>       0.00274348 </v>
   <v>       0.00274348 </v>
   <v>       0.00274348 </v>
   <v>       0.00274348 </v>
   <v>       0.00274348 </v>
   <v>       0.00274348 </v>
   <v>       0.00274348 </v>
   <v>       0.00274348 </v>
   <v>       0.00274348 </v>
   <v>       0.00274348 </v>
   <v>       0.00274348 </v>
   <v>       0.00274348 </v>
   <v>       0.00274348 </v>
   <v>       0.00274348 </v>
   <v>       0.00274348 </v>
   <v>       0.00274348 </v>
   <v>       0.00274348 </v>
   <v>       0.00274348 </v>
   <v>       0.00274348 </v>
   <v>       0.00274348 </v>
   <v>       0.00274348 </v>
   <v>       0.00274348 </v>
   <v>       0.00274348 </v>
   <v>       0.00274348 </v>
   <v>       0.00274348 </v>
   <v>       0.00274348 </v>
   <v>       0.00274348 </v>
   <v>       0.00274348 </v>
   <v>       0.00274348 </v>
   <v>       0.00274348 </v>
   <v>       0.00274348 </v>
   <v>       0.00274348 </v>
   <v>       0.00274348 </v>
   <v>       0.00274348 </v>
   <v>       0.00274348 </v>
   <v>       0.00274348 </v>
   <v>       0.00274348 </v>
   <v>       0.00274348 </v>
   <v>       0.00274348 </v>
   <v>       0.00274348 </v>
   <v>       0.00274348 </v>
   <v>       0.00274348 </v>
   <v>       0.00274348 </v>
   <v>       0.00274348 </v>
   <v>       0.00274348 </v>
   <v>       0.00274348 </v>
   <v>       0.00274348 </v>
   <v>       0.00274348 </v>
   <v>       0.00274348 </v>
   <v>       0.00274348 </v>
   <v>       0.00274348 </v>
   <v>       0.00274348 </v>
   <v>       0.00274348 </v>
   <v>       0.00274348 </v>
   <v>       0.00274348 </v>
   <v>       0.00274348 </v>
   <v>       0.00274348 </v>
   <v>       0.00274348 </v>
   <v>       0.00274348 </v>
   <v>       0.00274348 </v>
  </varray>
 </kpoints>
 <parameters>
  <separator name="general" >
   <i type="string" name="SYSTEM">al</i>
   <i type="logical" name="LCOMPAT"> F  </i>
  </separator>
  <separator name="electronic" >
   <i type="string" name="PREC">accura</i>
   <i name="ENMAX">    600.00000000</i>
   <i name="ENAUG">    291.05200000</i>
   <i name="EDIFF">      0.00000100</i>
   <i type="int" name="IALGO">    38</i>
   <i type="int" name="IWAVPR">    10</i>
   <i type="int" name="NBANDS">    72</i>
   <i type="int" name="NBANDSLOW">    -1</i>
   <i type="int" name="NBANDSHIGH">    -1</i>
   <i name="NELECT">     96.00000000</i>
   <i type="int" name="TURBO">     0</i>
   <i type="int" name="IRESTART">     0</i>
   <i type="int" name="NREBOOT">     0</i>
   <i type="int" name="NMIN">     0</i>
   <i name="EREF">      0.00000000</i>
   <separator name="electronic smearing" >
    <i type="int" name="ISMEAR">     0</i>
    <i name="SIGMA">      0.05000000</i>
    <i name="KSPACING">      0.50000000</i>
    <i type="logical" name="KGAMMA"> T  </i>
    <i type="logical" name="KBLOWUP"> T  </i>
   </separator>
   <separator name="electronic projectors" >
    <i type="logical" name="LREAL"> T  </i>
    <v name="ROPT">     -0.00025000</v>
    <i type="int" name="LMAXPAW">    -1</i>
    <i type="int" name="LMAXMIX">     2</i>
    <i type="logical" name="NLSPLINE"> F  </i>
   </separator>
   <separator name="electronic startup" >
    <i type="int" name="ISTART">     0</i>
    <i type="int" name="ICHARG">     2</i>
    <i type="int" name="INIWAV">     1</i>
   </separator>
   <separator name="electronic spin" >
    <i type="int" name="ISPIN">     1</i>
    <i type="logical" name="LNONCOLLINEAR"> F  </i>
    <v name="MAGMOM">      1.00000000      1.00000000      1.00000000      1.00000000      1.00000000      1.00000000      1.00000000      1.00000000      1.00000000      1.00000000      1.00000000      1.00000000      1.00000000      1.00000000      1.00000000      1.00000000      1.00000000      1.00000000      1.00000000      1.00000000
      1.00000000      1.00000000      1.00000000      1.00000000      1.00000000      1.00000000      1.00000000      1.00000000      1.00000000      1.00000000      1.00000000      1.00000000</v>
    <i name="NUPDOWN">     -1.00000000</i>
    <i type="logical" name="LSORBIT"> F  </i>
    <v name="SAXIS">      0.00000000      0.00000000      1.00000000</v>
    <i type="logical" name="LSPIRAL"> F  </i>
    <v name="QSPIRAL">      0.00000000      0.00000000      0.00000000</v>
    <i type="logical" name="LZEROZ"> F  </i>
   </separator>
   <separator name="electronic exchange-correlation" >
    <i type="logical" name="LASPH"> F  </i>
    <i type="logical" name="LMETAGGA"> F  </i>
   </separator>
   <separator name="electronic convergence" >
    <i type="int" name="NELM">   200</i>
    <i type="int" name="NELMDL">    -5</i>
    <i type="int" name="NELMIN">     2</i>
    <i name="ENINI">    600.00000000</i>
    <separator name="electronic convergence detail" >
     <i type="logical" name="LDIAG"> T  </i>
     <i type="logical" name="LSUBROT"> F  </i>
     <i name="WEIMIN">      0.00000000</i>
     <i name="EBREAK">      0.00000000</i>
     <i name="DEPER">      0.30000000</i>
     <i type="int" name="NRMM">     4</i>
     <i name="TIME">      0.40000000</i>
    </separator>
   </separator>
   <separator name="electronic mixer" >
    <i name="AMIX">      0.40000000</i>
    <i name="BMIX">      1.00000000</i>
    <i name="AMIN">      0.10000000</i>
    <i name="AMIX_MAG">      1.60000000</i>
    <i name="BMIX_MAG">      1.00000000</i>
    <separator name="electronic mixer details" >
     <i type="int" name="IMIX">     4</i>
     <i type="logical" name="MIXFIRST"> F  </i>
     <i type="int" name="MAXMIX">   -45</i>
     <i name="WC">    100.00000000</i>
     <i type="int" name="INIMIX">     1</i>
     <i type="int" name="MIXPRE">     1</i>
     <i type="int" name="MREMOVE">     5</i>
    </separator>
   </separator>
   <separator name="electronic dipolcorrection" >
    <i type="logical" name="LDIPOL"> F  </i>
    <i type="logical" name="LMONO"> F  </i>
    <i type="int" name="IDIPOL">     0</i>
    <i name="EPSILON">      1.00000000</i>
    <v name="DIPOL">   -100.00000000   -100.00000000   -100.00000000</v>
    <i name="EFIELD">      0.00000000</i>
   </separator>
  </separator>
  <separator name="grids" >
   <i type="int" name="NGX">    70</i>
   <i type="int" name="NGY">    70</i>
   <i type="int" name="NGZ">    70</i>
   <i type="int" name="NGXF">   140</i>
   <i type="int" name="NGYF">   140</i>
   <i type="int" name="NGZF">   140</i>
   <i type="logical" name="ADDGRID"> F  </i>
  </separator>
  <separator name="ionic" >
   <i type="int" name="NSW">     0</i>
   <i type="int" name="IBRION">    -1</i>
   <i type="int" name="MDALGO">     0</i>
   <i type="int" name="ISIF">     2</i>
   <i name="PSTRESS">      0.00000000</i>
   <i name="EDIFFG">      0.00001000</i>
   <i type="int" name="NFREE">     0</i>
   <i name="POTIM">      0.50000000</i>
   <i name="SMASS">     -3.00000000</i>
   <i name="SCALEE">      1.00000000</i>
  </separator>
  <separator name="ionic md" >
   <i name="TEBEG">      0.00010000</i>
   <i name="TEEND">      0.00010000</i>
   <i type="int" name="NBLOCK">     1</i>
   <i type="int" name="KBLOCK">     1</i>
   <i type="int" name="NPACO">   256</i>
   <i name="APACO">     16.00000000</i>
  </separator>
  <separator name="symmetry" >
   <i type="int" name="ISYM">     2</i>
   <i name="SYMPREC">      0.00001000</i>
  </separator>
  <separator name="dos" >
   <i type="int" name="LORBIT">     0</i>
   <v name="RWIGS">     -1.00000000</v>
   <i type="int" name="NEDOS">   301</i>
   <i name="EMIN">     10.00000000</i>
   <i name="EMAX">    -10.00000000</i>
   <i name="EFERMI">      0.00000000</i>
  </separator>
  <separator name="writing" >
   <i type="int" name="NWRITE">     2</i>
   <i type="logical" name="LWAVE"> F  </i>
   <i type="logical" name="LDOWNSAMPLE"> F  </i>
   <i type="logical" name="LCHARG"> T  </i>
   <i type="logical" name="LPARD"> F  </i>
   <i type="logical" name="LVTOT"> F  </i>
   <i type="logical" name="LVHAR"> F  </i>
   <i type="logical" name="LELF"> F  </i>
   <i type="logical" name="LOPTICS"> F  </i>
   <v name="STM">      0.00000000      0.00000000      0.00000000      0.00000000      0.00000000      0.00000000      0.00000000</v>
  </separator>
  <separator name="performance" >
   <i type="int" name="NPAR">     8</i>
   <i type="int" name="NSIM">     8</i>
   <i type="int" name="NBLK">    -1</i>
   <i type="logical" name="LPLANE"> T  </i>
   <i type="logical" name="LSCALAPACK"> T  </i>
   <i type="logical" name="LSCAAWARE"> F  </i>
   <i type="logical" name="LSCALU"> F  </i>
   <i type="logical" name="LASYNC"> F  </i>
   <i type="logical" name="LORBITALREAL"> F  </i>
  </separator>
  <separator name="miscellaneous" >
   <i type="int" name="IDIOT">     3</i>
   <i type="int" name="PHON_NSTRUCT">    -1</i>
   <i type="logical" name="LMUSIC"> F  </i>
   <v name="POMASS">     26.98100000</v>
   <v name="DARWINR">      0.00000000</v>
   <v name="DARWINV">      1.00000000</v>
   <i type="logical" name="LCORR"> T  </i>
  </separator>
  <i type="logical" name="GGA_COMPAT"> T  </i>
  <i type="logical" name="LBERRY"> F  </i>
  <i type="int" name="ICORELEVEL">     0</i>
  <i type="logical" name="LDAU"> F  </i>
  <i type="int" name="I_CONSTRAINED_M">     0</i>
  <separator name="electronic exchange-correlation" >
   <i type="string" name="GGA">PE</i>
   <i type="int" name="VOSKOWN">     0</i>
   <i type="logical" name="LHFCALC"> F  </i>
   <i type="string" name="PRECFOCK"></i>
   <i type="logical" name="LSYMGRAD"> F  </i>
   <i type="logical" name="LHFONE"> F  </i>
   <i type="logical" name="LRHFCALC"> F  </i>
   <i type="logical" name="LTHOMAS"> F  </i>
   <i type="logical" name="LMODELHF"> F  </i>
   <i type="logical" name="LFOCKACE"> F  </i>
   <i name="ENCUT4O">     -1.00000000</i>
   <i type="int" name="EXXOEP">     0</i>
   <i type="int" name="FOURORBIT">     0</i>
   <i name="AEXX">      0.00000000</i>
   <i name="HFALPHA">      0.00000000</i>
   <i name="MCALPHA">      0.00000000</i>
   <i name="ALDAX">      1.00000000</i>
   <i name="AGGAX">      1.00000000</i>
   <i name="ALDAC">      1.00000000</i>
   <i name="AGGAC">      1.00000000</i>
   <i type="int" name="NKREDX">     1</i>
   <i type="int" name="NKREDY">     1</i>
   <i type="int" name="NKREDZ">     1</i>
   <i type="logical" name="SHIFTRED"> F  </i>
   <i type="logical" name="ODDONLY"> F  </i>
   <i type="logical" name="EVENONLY"> F  </i>
   <i type="int" name="LMAXFOCK">     0</i>
   <i type="int" name="NMAXFOCKAE">     0</i>
   <i type="logical" name="LFOCKAEDFT"> F  </i>
   <i name="HFSCREEN">      0.00000000</i>
   <i name="HFSCREENC">      0.00000000</i>
   <i type="int" name="NBANDSGWLOW">     0</i>
  </separator>
  <separator name="vdW DFT" >
   <i type="logical" name="LUSE_VDW"> F  </i>
   <i name="Zab_VDW">     -0.84910000</i>
   <i name="PARAM1">      0.12340000</i>
   <i name="PARAM2">      1.00000000</i>
   <i name="PARAM3">      0.00000000</i>
  </separator>
  <separator name="model GW" >
   <i type="int" name="MODEL_GW">     0</i>
   <i name="MODEL_EPS0">      9.88389577</i>
   <i name="MODEL_ALPHA">      1.00000000</i>
  </separator>
  <separator name="linear response parameters" >
   <i type="logical" name="LEPSILON"> F  </i>
   <i type="logical" name="LRPA"> F  </i>
   <i type="logical" name="LNABLA"> F  </i>
   <i type="logical" name="LVEL"> F  </i>
   <i type="int" name="KINTER">     0</i>
   <i name="CSHIFT">      0.10000000</i>
   <i name="OMEGAMAX">     -1.00000000</i>
   <i name="DEG_THRESHOLD">      0.00200000</i>
   <i name="RTIME">     -0.10000000</i>
   <i name="WPLASMAI">      0.00000000</i>
   <v name="DFIELD">      0.00000000      0.00000000      0.00000000</v>
   <v name="WPLASMA">      0.00000000      0.00000000      0.00000000      0.00000000      0.00000000      0.00000000      0.00000000      0.00000000      0.00000000</v>
  </separator>
  <separator name="orbital magnetization" >
   <i type="logical" name="NUCIND"> F  </i>
   <v name="MAGPOS">      0.00000000      0.00000000      0.00000000</v>
   <i type="logical" name="LNICSALL"> T  </i>
   <i type="logical" name="ORBITALMAG"> F  </i>
   <i type="logical" name="LMAGBLOCH"> F  </i>
   <i type="logical" name="LCHIMAG"> F  </i>
   <i type="logical" name="LGAUGE"> T  </i>
   <i type="int" name="MAGATOM">     0</i>
   <v name="MAGDIPOL">      0.00000000      0.00000000      0.00000000</v>
   <v name="AVECCONST">      0.00000000      0.00000000      0.00000000</v>
  </separator>
  <separator name="response functions" >
   <i type="logical" name="LFINITE_TEMPERATURE"> F  </i>
   <i type="logical" name="LADDER"> F  </i>
   <i type="logical" name="LRPAFORCE"> F  </i>
   <i type="logical" name="LFXC"> F  </i>
   <i type="logical" name="LHARTREE"> T  </i>
   <i type="int" name="IBSE">     0</i>
   <v type="int" name="KPOINT">    -1     0     0     0</v>
   <i type="logical" name="LTCTC"> F  </i>
   <i type="logical" name="LTCTE"> F  </i>
   <i type="logical" name="LTETE"> F  </i>
   <i type="logical" name="LTRIPLET"> F  </i>
   <i type="logical" name="LFXCEPS"> F  </i>
   <i type="logical" name="LFXHEG"> F  </i>
   <i type="int" name="NATURALO">     2</i>
   <i type="logical" name="LHOLEGF"> F  </i>
   <i type="logical" name="L2ORDER"> F  </i>
   <i type="logical" name="LDMP1"> F  </i>
   <i type="logical" name="LMP2LT"> F  </i>
   <i type="logical" name="LSMP2LT"> F  </i>
   <i type="logical" name="LGWLF"> F  </i>
   <i name="ENCUTGW">     -2.00000000</i>
   <i name="ENCUTGWSOFT">     -2.00000000</i>
   <i name="ENCUTLF">     -1.00000000</i>
   <i type="logical" name="LESF_SPLINES"> F  </i>
   <i type="int" name="LMAXMP2">    -1</i>
   <i name="SCISSOR">      0.00000000</i>
   <i type="int" name="NOMEGA">     0</i>
   <i type="int" name="NOMEGAR">     0</i>
   <i type="int" name="NBANDSGW">    -1</i>
   <i type="int" name="NBANDSO">    -1</i>
   <i type="int" name="NBANDSV">    -1</i>
   <i type="int" name="NELM">   200</i>
   <i type="int" name="NELMHF">     1</i>
   <i type="int" name="DIM">     3</i>
   <i type="int" name="IESPILON">     4</i>
   <i type="int" name="ANTIRES">     0</i>
   <i name="OMEGAMAX">    -30.00000000</i>
   <i name="OMEGAMIN">    -30.00000000</i>
   <i name="OMEGATL">   -200.00000000</i>
   <i type="int" name="OMEGAGRID">     0</i>
   <i name="CSHIFT">     -0.10000000</i>
   <i type="logical" name="LSELFENERGY"> F  </i>
   <i type="logical" name="LSPECTRAL"> F  </i>
   <i type="logical" name="LSPECTRALGW"> F  </i>
   <i type="logical" name="LSINGLES"> F  </i>
   <i type="logical" name="LFERMIGW"> F  </i>
   <i type="logical" name="ODDONLYGW"> F  </i>
   <i type="logical" name="EVENONLYGW"> F  </i>
   <i type="int" name="NKREDLFX">     1</i>
   <i type="int" name="NKREDLFY">     1</i>
   <i type="int" name="NKREDLFZ">     1</i>
   <i type="int" name="MAXMEM">  2800</i>
   <i type="int" name="TELESCOPE">     0</i>
   <i type="int" name="NTAUPAR">    -1</i>
   <i type="int" name="NOMEGAPAR">    -1</i>
   <i name="DAMP_NEWTON">      0.80000001</i>
   <i name="LAMBDA">      1.00000000</i>
  </separator>
  <separator name="External order field" >
   <i name="OFIELD_KAPPA">      0.00000000</i>
   <v name="OFIELD_K">      0.00000000      0.00000000      0.00000000</v>
   <i name="OFIELD_Q6_NEAR">      0.00000000</i>
   <i name="OFIELD_Q6_FAR">      0.00000000</i>
   <i name="OFIELD_A">      0.00000000</i>
  </separator>
 </parameters>
 <atominfo>
  <atoms>      32 </atoms>
  <types>       1 </types>
  <array name="atoms" >
   <dimension dim="1">ion</dimension>
   <field type="string">element</field>
   <field type="int">atomtype</field>
   <set>
    <rc><c>Al</c><c>   1</c></rc>
    <rc><c>Al</c><c>   1</c></rc>
    <rc><c>Al</c><c>   1</c></rc>
    <rc><c>Al</c><c>   1</c></rc>
    <rc><c>Al</c><c>   1</c></rc>
    <rc><c>Al</c><c>   1</c></rc>
    <rc><c>Al</c><c>   1</c></rc>
    <rc><c>Al</c><c>   1</c></rc>
    <rc><c>Al</c><c>   1</c></rc>
    <rc><c>Al</c><c>   1</c></rc>
    <rc><c>Al</c><c>   1</c></rc>
    <rc><c>Al</c><c>   1</c></rc>
    <rc><c>Al</c><c>   1</c></rc>
    <rc><c>Al</c><c>   1</c></rc>
    <rc><c>Al</c><c>   1</c></rc>
    <rc><c>Al</c><c>   1</c></rc>
    <rc><c>Al</c><c>   1</c></rc>
    <rc><c>Al</c><c>   1</c></rc>
    <rc><c>Al</c><c>   1</c></rc>
    <rc><c>Al</c><c>   1</c></rc>
    <rc><c>Al</c><c>   1</c></rc>
    <rc><c>Al</c><c>   1</c></rc>
    <rc><c>Al</c><c>   1</c></rc>
    <rc><c>Al</c><c>   1</c></rc>
    <rc><c>Al</c><c>   1</c></rc>
    <rc><c>Al</c><c>   1</c></rc>
    <rc><c>Al</c><c>   1</c></rc>
    <rc><c>Al</c><c>   1</c></rc>
    <rc><c>Al</c><c>   1</c></rc>
    <rc><c>Al</c><c>   1</c></rc>
    <rc><c>Al</c><c>   1</c></rc>
    <rc><c>Al</c><c>   1</c></rc>
   </set>
  </array>
  <array name="atomtypes" >
   <dimension dim="1">type</dimension>
   <field type="int">atomspertype</field>
   <field type="string">element</field>
   <field>mass</field>
   <field>valence</field>
   <field type="string">pseudopotential</field>
   <set>
    <rc><c>  32</c><c>Al</c><c>     26.98100000</c><c>      3.00000000</c><c>  PAW_PBE Al 04Jan2001                  </c></rc>
   </set>
  </array>
 </atominfo>
 <structure name="initialpos" >
  <crystal>
   <varray name="basis" >
    <v>       8.07809510       0.00000000       0.00000000 </v>
    <v>       0.00000000       8.07809510       0.00000000 </v>
    <v>       0.00000000       0.00000000       8.07809510 </v>
   </varray>
   <i name="volume">    527.14110776 </i>
   <varray name="rec_basis" >
    <v>       0.12379156       0.00000000       0.00000000 </v>
    <v>       0.00000000       0.12379156       0.00000000 </v>
    <v>       0.00000000       0.00000000       0.12379156 </v>
   </varray>
  </crystal>
  <varray name="positions" >
   <v>       0.00632071       0.99694722       0.00732096 </v>
   <v>       0.00824263       0.25054287       0.25838765 </v>
   <v>       0.25215951       0.98107776       0.24520369 </v>
   <v>       0.23487622       0.23978154       0.98394628 </v>
   <v>       0.98904740       0.01653012       0.48391955 </v>
   <v>       0.99671075       0.24995363       0.75485965 </v>
   <v>       0.23623341       0.99980195       0.72811066 </v>
   <v>       0.24222247       0.26151563       0.50073503 </v>
   <v>       0.00337180       0.50277024       0.00142809 </v>
   <v>       0.98836732       0.74963689       0.22832533 </v>
   <v>       0.23512467       0.49356038       0.25449301 </v>
   <v>       0.26530653       0.74258124       0.00856887 </v>
   <v>       0.00278292       0.50364933       0.51204933 </v>
   <v>       0.00537695       0.74649984       0.75965804 </v>
   <v>       0.25043232       0.50614785       0.75062924 </v>
   <v>       0.24447726       0.75337624       0.48730868 </v>
   <v>       0.50797520       0.01148454       0.00217773 </v>
   <v>       0.48999934       0.25970501       0.25970211 </v>
   <v>       0.75500715       0.00820092       0.25097581 </v>
   <v>       0.76802771       0.23808778       0.99080112 </v>
   <v>       0.51077945       0.98593761       0.49608667 </v>
   <v>       0.50588464       0.24315023       0.74573334 </v>
   <v>       0.74513637       0.97842986       0.75855640 </v>
   <v>       0.74463237       0.25500418       0.48083505 </v>
   <v>       0.50066836       0.47908734       0.99760589 </v>
   <v>       0.52166281       0.75372548       0.21944978 </v>
   <v>       0.75687564       0.51416423       0.25449004 </v>
   <v>       0.74007157       0.74459963       0.98741630 </v>
   <v>       0.49172950       0.52035838       0.50052798 </v>
   <v>       0.49182348       0.75135419       0.75663500 </v>
   <v>       0.74923784       0.48316010       0.74874381 </v>
   <v>       0.75005179       0.74654986       0.49472086 </v>
  </varray>
 </structure>
 <calculation>
  <scstep>
   <time name="dav">   48.47   48.79</time>
   <time name="total">   48.53   48.85</time>
   <energy>
    <i name="alphaZ">     -6.52466918 </i>
    <i name="ewald">  -2347.41436542 </i>
    <i name="hartreedc">     -5.71530650 </i>
    <i name="XCdc">   -839.48026826 </i>
    <i name="pawpsdc">   2118.40502803 </i>
    <i name="pawaedc">  -1095.85986421 </i>
    <i name="eentropy">     -0.00784933 </i>
    <i name="bandstr">    600.92377393 </i>
    <i name="atom">   1713.23359074 </i>
    <i name="e_fr_energy">    137.56006980 </i>
    <i name="e_wo_entrp">    137.56791913 </i>
    <i name="e_0_energy">    137.56399447 </i>
   </energy>
  </scstep>
  <scstep>
   <time name="dav">   54.77   55.13</time>
   <time name="total">   54.78   55.14</time>
   <energy>
    <i name="e_fr_energy">   -106.51628494 </i>
    <i name="e_wo_entrp">   -106.50207966 </i>
    <i name="e_0_energy">   -106.50918230 </i>
   </energy>
  </scstep>
  <scstep>
   <time name="dav">   58.22   58.58</time>
   <time name="total">   58.22   58.59</time>
   <energy>
    <i name="e_fr_energy">   -119.40249307 </i>
    <i name="e_wo_entrp">   -119.38629413 </i>
    <i name="e_0_energy">   -119.39439360 </i>
   </energy>
  </scstep>
  <scstep>
   <time name="dav">   56.83   57.20</time>
   <time name="total">   56.84   57.21</time>
   <energy>
    <i name="e_fr_energy">   -119.64147305 </i>
    <i name="e_wo_entrp">   -119.62535981 </i>
    <i name="e_0_energy">   -119.63341643 </i>
   </energy>
  </scstep>
  <scstep>
   <time name="dav">   57.02   57.39</time>
   <time name="total">   59.66   60.05</time>
   <energy>
    <i name="e_fr_energy">   -119.64405719 </i>
    <i name="e_wo_entrp">   -119.62794716 </i>
    <i name="e_0_energy">   -119.63600218 </i>
   </energy>
  </scstep>
  <scstep>
   <time name="dav">   59.81   60.17</time>
   <time name="total">   62.81   63.20</time>
   <energy>
    <i name="e_fr_energy">   -119.03823229 </i>
    <i name="e_wo_entrp">   -119.02259352 </i>
    <i name="e_0_energy">   -119.03041290 </i>
   </energy>
  </scstep>
  <scstep>
   <time name="dav">   58.89   59.26</time>
   <time name="total">   61.90   62.28</time>
   <energy>
    <i name="e_fr_energy">   -118.76335232 </i>
    <i name="e_wo_entrp">   -118.74792940 </i>
    <i name="e_0_energy">   -118.75564086 </i>
   </energy>
  </scstep>
  <scstep>
   <time name="dav">   59.67   60.03</time>
   <time name="total">   62.67   63.05</time>
   <energy>
    <i name="e_fr_energy">   -118.73171725 </i>
    <i name="e_wo_entrp">   -118.71618324 </i>
    <i name="e_0_energy">   -118.72395024 </i>
   </energy>
  </scstep>
  <scstep>
   <time name="dav">   58.67   59.03</time>
   <time name="total">   61.70   62.08</time>
   <energy>
    <i name="e_fr_energy">   -118.73025224 </i>
    <i name="e_wo_entrp">   -118.71467994 </i>
    <i name="e_0_energy">   -118.72246609 </i>
   </energy>
  </scstep>
  <scstep>
   <time name="dav">   60.60   60.98</time>
   <time name="total">   63.64   64.04</time>
   <energy>
    <i name="e_fr_energy">   -118.73013534 </i>
    <i name="e_wo_entrp">   -118.71455162 </i>
    <i name="e_0_energy">   -118.72234348 </i>
   </energy>
  </scstep>
  <scstep>
   <time name="dav">   59.44   59.80</time>
   <time name="total">   62.47   62.86</time>
   <energy>
    <i name="e_fr_energy">   -118.73013560 </i>
    <i name="e_wo_entrp">   -118.71455209 </i>
    <i name="e_0_energy">   -118.72234384 </i>
   </energy>
  </scstep>
  <scstep>
   <time name="dav">   40.74   41.00</time>
   <time name="total">   40.82   41.08</time>
   <energy>
    <i name="alphaZ">     -6.52466918 </i>
    <i name="ewald">  -2347.41436542 </i>
    <i name="hartreedc">     -6.88590232 </i>
    <i name="XCdc">   -835.89089957 </i>
    <i name="pawpsdc">   2118.40502803 </i>
    <i name="pawaedc">  -1095.85986421 </i>
    <i name="eentropy">     -0.01558364 </i>
    <i name="bandstr">    342.22253003 </i>
    <i name="atom">   1713.23359074 </i>
    <i name="e_fr_energy">   -118.73013552 </i>
    <i name="e_wo_entrp">   -118.71455189 </i>
    <i name="e_0_energy">   -118.72234371 </i>
   </energy>
  </scstep>
  <structure>
   <crystal>
    <varray name="basis" >
     <v>       8.07809510       0.00000000       0.00000000 </v>
     <v>       0.00000000       8.07809510       0.00000000 </v>
     <v>       0.00000000       0.00000000       8.07809510 </v>
    </varray>
    <i name="volume">    527.14110776 </i>
    <varray name="rec_basis" >
     <v>       0.12379156       0.00000000       0.00000000 </v>
     <v>       0.00000000       0.12379156       0.00000000 </v>
     <v>       0.00000000       0.00000000       0.12379156 </v>
    </varray>
   </crystal>
   <varray name="positions" >
    <v>       0.00632071       0.99694722       0.00732096 </v>
    <v>       0.00824263       0.25054287       0.25838765 </v>
    <v>       0.25215951       0.98107776       0.24520369 </v>
    <v>       0.23487622       0.23978154       0.98394628 </v>
    <v>       0.98904740       0.01653012       0.48391955 </v>
    <v>       0.99671075       0.24995363       0.75485965 </v>
    <v>       0.23623341       0.99980195       0.72811066 </v>
    <v>       0.24222247       0.26151563       0.50073503 </v>
    <v>       0.00337180       0.50277024       0.00142809 </v>
    <v>       0.98836732       0.74963689       0.22832533 </v>
    <v>       0.23512467       0.49356038       0.25449301 </v>
    <v>       0.26530653       0.74258124       0.00856887 </v>
    <v>       0.00278292       0.50364933       0.51204933 </v>
    <v>       0.00537695       0.74649984       0.75965804 </v>
    <v>       0.25043232       0.50614785       0.75062924 </v>
    <v>       0.24447726       0.75337624       0.48730868 </v>
    <v>       0.50797520       0.01148454       0.00217773 </v>
    <v>       0.48999934       0.25970501       0.25970211 </v>
    <v>       0.75500715       0.00820092       0.25097581 </v>
    <v>       0.76802771       0.23808778       0.99080112 </v>
    <v>       0.51077945       0.98593761       0.49608667 </v>
    <v>       0.50588464       0.24315023       0.74573334 </v>
    <v>       0.74513637       0.97842986       0.75855640 </v>
    <v>       0.74463237       0.25500418       0.48083505 </v>
    <v>       0.50066836       0.47908734       0.99760589 </v>
    <v>       0.52166281       0.75372548       0.21944978 </v>
    <v>       0.75687564       0.51416423       0.25449004 </v>
    <v>       0.74007157       0.74459963       0.98741630 </v>
    <v>       0.49172950       0.52035838       0.50052798 </v>
    <v>       0.49182348       0.75135419       0.75663500 </v>
    <v>       0.74923784       0.48316010       0.74874381 </v>
    <v>       0.75005179       0.74654986       0.49472086 </v>
   </varray>
  </structure>
  <varray name="forces" >
   <v>      -0.09042805      -0.15873620      -0.38348742 </v>
   <v>      -0.23147109       0.18537514      -0.62866318 </v>
   <v>       0.18982542       0.67209180       0.11390453 </v>
   <v>       0.65042944       0.17207859       0.42874246 </v>
   <v>       0.25881074      -0.65276751       0.69546070 </v>
   <v>      -0.08196020      -0.16936395      -0.55883709 </v>
   <v>       0.33047380      -0.05482495       0.32744780 </v>
   <v>       0.43497673      -0.39368336       0.21609071 </v>
   <v>      -0.16212265      -0.21236929      -0.08973131 </v>
   <v>       0.33235237       0.12852742       0.66673254 </v>
   <v>       0.48105654       0.37182347      -0.27422601 </v>
   <v>      -0.36854873       0.02279507      -0.35034633 </v>
   <v>      -0.28916493       0.07615860      -0.20094194 </v>
   <v>      -0.14620814       0.14874553      -0.31088900 </v>
   <v>       0.10952215      -0.24464069       0.08247549 </v>
   <v>      -0.11541756      -0.01940262       0.13900397 </v>
   <v>      -0.39067497       0.08475217      -0.06833446 </v>
   <v>       0.03132027      -0.24810192      -0.28481733 </v>
   <v>      -0.27962013      -0.14409711      -0.39023285 </v>
   <v>      -0.44236771       0.31368368       0.52875944 </v>
   <v>      -0.38982982       0.33389753      -0.00671874 </v>
   <v>      -0.22559599      -0.07609204      -0.24708521 </v>
   <v>       0.37408406       0.59013836      -0.58769946 </v>
   <v>      -0.08121109       0.13958663       0.59467350 </v>
   <v>       0.01320648       0.12621312       0.12606388 </v>
   <v>      -0.60845000      -0.15240775       1.02897317 </v>
   <v>      -0.18569143      -0.75355585      -0.28859855 </v>
   <v>       0.56521614      -0.27246527      -0.09332921 </v>
   <v>       0.16617695      -0.35448201      -0.12492040 </v>
   <v>      -0.03170510      -0.06371168      -0.27875709 </v>
   <v>      -0.10308916       0.46567980      -0.08944884 </v>
   <v>       0.28610566       0.13915531       0.30873623 </v>
  </varray>
  <varray name="stress" >
   <v>      11.48565108       0.27927798      -0.21771008 </v>
   <v>       0.27927796      10.89033516      -3.04565621 </v>
   <v>      -0.21771006      -3.04565623      14.61528643 </v>
  </varray>
  <energy>
   <i name="e_fr_energy">   -118.73013552 </i>
   <i name="e_wo_entrp">   -118.71455189 </i>
   <i name="e_0_energy">   -118.72234371 </i>
  </energy>
  <time name="totalsc">  765.18  770.07</time>
  <eigenvalues>
   <array>
    <dimension dim="1">band</dimension>
    <dimension dim="2">kpoint</dimension>
    <dimension dim="3">spin</dimension>
    <field>eigene</field>
    <field>occ</field>
    <set>
     <set comment="spin 1">
      <set comment="kpoint 1">
       <r>   -3.1621    1.0000 </r>
       <r>   -1.1163    1.0000 </r>
       <r>   -0.9907    1.0000 </r>
       <r>   -0.9404    1.0000 </r>
       <r>   -0.8981    1.0000 </r>
       <r>   -0.8121    1.0000 </r>
       <r>   -0.7083    1.0000 </r>
       <r>    1.0104    1.0000 </r>
       <r>    1.0999    1.0000 </r>
       <r>    1.1181    1.0000 </r>
       <r>    1.2127    1.0000 </r>
       <r>    1.2544    1.0000 </r>
       <r>    1.2765    1.0000 </r>
       <r>    1.3057    1.0000 </r>
       <r>    1.3867    1.0000 </r>
       <r>    1.4402    1.0000 </r>
       <r>    1.4976    1.0000 </r>
       <r>    1.5565    1.0000 </r>
       <r>    1.5991    1.0000 </r>
       <r>    3.3097    1.0000 </r>
       <r>    3.3612    1.0000 </r>
       <r>    3.3964    1.0000 </r>
       <r>    3.4167    1.0000 </r>
       <r>    3.6057    1.0000 </r>
       <r>    3.6297    1.0000 </r>
       <r>    3.6771    1.0000 </r>
       <r>    3.6990    1.0000 </r>
       <r>    5.0606    1.0000 </r>
       <r>    5.0713    1.0000 </r>
       <r>    5.0868    1.0000 </r>
       <r>    6.3293    1.0000 </r>
       <r>    6.3467    1.0000 </r>
       <r>    6.3726    1.0000 </r>
       <r>    6.9128    1.0000 </r>
       <r>    6.9508    1.0000 </r>
       <r>    6.9896    1.0000 </r>
       <r>    7.0113    1.0000 </r>
       <r>    7.0728    1.0000 </r>
       <r>    7.1073    1.0000 </r>
       <r>    7.1909    1.0000 </r>
       <r>    7.2111    1.0000 </r>
       <r>    7.2326    1.0000 </r>
       <r>    7.3634    1.0000 </r>
       <r>    7.3786    1.0000 </r>
       <r>    7.4365    1.0000 </r>
       <r>    7.9207    0.9947 </r>
       <r>    8.0458    0.1628 </r>
       <r>    8.1428    0.0001 </r>
       <r>    8.1715    0.0000 </r>
       <r>    8.3004    0.0000 </r>
       <r>    8.3311    0.0000 </r>
       <r>    8.9451    0.0000 </r>
       <r>    8.9829    0.0000 </r>
       <r>    9.0065    0.0000 </r>
       <r>    9.0331    0.0000 </r>
       <r>    9.0615    0.0000 </r>
       <r>    9.0776    0.0000 </r>
       <r>    9.1174    0.0000 </r>
       <r>    9.1229    0.0000 </r>
       <r>    9.1547    0.0000 </r>
       <r>    9.2166    0.0000 </r>
       <r>    9.2248    0.0000 </r>
       <r>    9.2686    0.0000 </r>
       <r>    9.2989    0.0000 </r>
       <r>    9.3421    0.0000 </r>
       <r>    9.3645    0.0000 </r>
       <r>    9.4380    0.0000 </r>
       <r>    9.4456    0.0000 </r>
       <r>    9.5258    0.0000 </r>
       <r>   10.5372    0.0000 </r>
       <r>   10.6034    0.0000 </r>
       <r>   10.6194    0.0000 </r>
      </set>
      <set comment="kpoint 2">
       <r>   -3.1344    1.0000 </r>
       <r>   -1.4081    1.0000 </r>
       <r>   -0.9836    1.0000 </r>
       <r>   -0.9383    1.0000 </r>
       <r>   -0.8792    1.0000 </r>
       <r>   -0.7409    1.0000 </r>
       <r>   -0.3553    1.0000 </r>
       <r>    0.7072    1.0000 </r>
       <r>    0.7794    1.0000 </r>
       <r>    0.8268    1.0000 </r>
       <r>    0.9482    1.0000 </r>
       <r>    1.2386    1.0000 </r>
       <r>    1.3177    1.0000 </r>
       <r>    1.3863    1.0000 </r>
       <r>    1.4223    1.0000 </r>
       <r>    1.7455    1.0000 </r>
       <r>    1.8182    1.0000 </r>
       <r>    1.8867    1.0000 </r>
       <r>    1.9944    1.0000 </r>
       <r>    2.9445    1.0000 </r>
       <r>    3.0185    1.0000 </r>
       <r>    3.0881    1.0000 </r>
       <r>    3.1179    1.0000 </r>
       <r>    3.9349    1.0000 </r>
       <r>    4.0098    1.0000 </r>
       <r>    4.0792    1.0000 </r>
       <r>    4.1126    1.0000 </r>
       <r>    4.5846    1.0000 </r>
       <r>    5.0992    1.0000 </r>
       <r>    5.1045    1.0000 </r>
       <r>    6.3607    1.0000 </r>
       <r>    6.3722    1.0000 </r>
       <r>    6.5179    1.0000 </r>
       <r>    6.5720    1.0000 </r>
       <r>    6.6278    1.0000 </r>
       <r>    6.7039    1.0000 </r>
       <r>    6.7675    1.0000 </r>
       <r>    6.8796    1.0000 </r>
       <r>    6.9180    1.0000 </r>
       <r>    7.1053    1.0000 </r>
       <r>    7.1518    1.0000 </r>
       <r>    7.1953    1.0000 </r>
       <r>    7.3104    1.0000 </r>
       <r>    7.6296    1.0000 </r>
       <r>    7.7001    1.0000 </r>
       <r>    7.9282    0.9904 </r>
       <r>    7.9951    0.6738 </r>
       <r>    8.2688    0.0000 </r>
       <r>    8.3963    0.0000 </r>
       <r>    8.4459    0.0000 </r>
       <r>    8.4960    0.0000 </r>
       <r>    8.6330    0.0000 </r>
       <r>    8.6938    0.0000 </r>
       <r>    8.7648    0.0000 </r>
       <r>    8.8284    0.0000 </r>
       <r>    8.8398    0.0000 </r>
       <r>    8.8970    0.0000 </r>
       <r>    8.9498    0.0000 </r>
       <r>    9.0210    0.0000 </r>
       <r>    9.2514    0.0000 </r>
       <r>    9.2978    0.0000 </r>
       <r>    9.3092    0.0000 </r>
       <r>    9.3636    0.0000 </r>
       <r>    9.3830    0.0000 </r>
       <r>    9.4323    0.0000 </r>
       <r>    9.6868    0.0000 </r>
       <r>    9.7346    0.0000 </r>
       <r>    9.7761    0.0000 </r>
       <r>    9.8948    0.0000 </r>
       <r>   10.2042    0.0000 </r>
       <r>   10.2982    0.0000 </r>
       <r>   10.3512    0.0000 </r>
      </set>
      <set comment="kpoint 3">
       <r>   -3.1343    1.0000 </r>
       <r>   -1.4168    1.0000 </r>
       <r>   -0.9682    1.0000 </r>
       <r>   -0.9221    1.0000 </r>
       <r>   -0.8789    1.0000 </r>
       <r>   -0.7637    1.0000 </r>
       <r>   -0.3564    1.0000 </r>
       <r>    0.7146    1.0000 </r>
       <r>    0.7806    1.0000 </r>
       <r>    0.8473    1.0000 </r>
       <r>    0.9190    1.0000 </r>
       <r>    1.2125    1.0000 </r>
       <r>    1.3091    1.0000 </r>
       <r>    1.3780    1.0000 </r>
       <r>    1.4623    1.0000 </r>
       <r>    1.7796    1.0000 </r>
       <r>    1.8237    1.0000 </r>
       <r>    1.8550    1.0000 </r>
       <r>    1.9896    1.0000 </r>
       <r>    2.9197    1.0000 </r>
       <r>    3.0232    1.0000 </r>
       <r>    3.0701    1.0000 </r>
       <r>    3.1723    1.0000 </r>
       <r>    3.9064    1.0000 </r>
       <r>    4.0074    1.0000 </r>
       <r>    4.0504    1.0000 </r>
       <r>    4.1552    1.0000 </r>
       <r>    4.5936    1.0000 </r>
       <r>    5.0883    1.0000 </r>
       <r>    5.1061    1.0000 </r>
       <r>    6.3477    1.0000 </r>
       <r>    6.3875    1.0000 </r>
       <r>    6.5270    1.0000 </r>
       <r>    6.5858    1.0000 </r>
       <r>    6.6270    1.0000 </r>
       <r>    6.6853    1.0000 </r>
       <r>    6.7685    1.0000 </r>
       <r>    6.8368    1.0000 </r>
       <r>    6.9067    1.0000 </r>
       <r>    7.1238    1.0000 </r>
       <r>    7.1697    1.0000 </r>
       <r>    7.2314    1.0000 </r>
       <r>    7.3111    1.0000 </r>
       <r>    7.6530    1.0000 </r>
       <r>    7.6740    1.0000 </r>
       <r>    7.8904    0.9997 </r>
       <r>    7.9720    0.8649 </r>
       <r>    8.3373    0.0000 </r>
       <r>    8.4169    0.0000 </r>
       <r>    8.4457    0.0000 </r>
       <r>    8.4607    0.0000 </r>
       <r>    8.6158    0.0000 </r>
       <r>    8.6734    0.0000 </r>
       <r>    8.7551    0.0000 </r>
       <r>    8.8127    0.0000 </r>
       <r>    8.8706    0.0000 </r>
       <r>    8.8944    0.0000 </r>
       <r>    8.9325    0.0000 </r>
       <r>    9.0717    0.0000 </r>
       <r>    9.2775    0.0000 </r>
       <r>    9.2857    0.0000 </r>
       <r>    9.3295    0.0000 </r>
       <r>    9.3700    0.0000 </r>
       <r>    9.3841    0.0000 </r>
       <r>    9.4285    0.0000 </r>
       <r>    9.6548    0.0000 </r>
       <r>    9.6927    0.0000 </r>
       <r>    9.7824    0.0000 </r>
       <r>    9.8728    0.0000 </r>
       <r>   10.2255    0.0000 </r>
       <r>   10.3113    0.0000 </r>
       <r>   10.3682    0.0000 </r>
      </set>
      <set comment="kpoint 4">
       <r>   -3.1343    1.0000 </r>
       <r>   -1.4017    1.0000 </r>
       <r>   -1.0553    1.0000 </r>
       <r>   -0.9209    1.0000 </r>
       <r>   -0.7886    1.0000 </r>
       <r>   -0.7667    1.0000 </r>
       <r>   -0.3751    1.0000 </r>
       <r>    0.6522    1.0000 </r>
       <r>    0.7789    1.0000 </r>
       <r>    0.9147    1.0000 </r>
       <r>    0.9523    1.0000 </r>
       <r>    1.2623    1.0000 </r>
       <r>    1.2932    1.0000 </r>
       <r>    1.3790    1.0000 </r>
       <r>    1.4084    1.0000 </r>
       <r>    1.6731    1.0000 </r>
       <r>    1.8565    1.0000 </r>
       <r>    1.9275    1.0000 </r>
       <r>    1.9701    1.0000 </r>
       <r>    2.9642    1.0000 </r>
       <r>    2.9886    1.0000 </r>
       <r>    3.0923    1.0000 </r>
       <r>    3.1337    1.0000 </r>
       <r>    3.9527    1.0000 </r>
       <r>    3.9765    1.0000 </r>
       <r>    4.0845    1.0000 </r>
       <r>    4.1180    1.0000 </r>
       <r>    4.5882    1.0000 </r>
       <r>    5.0894    1.0000 </r>
       <r>    5.1086    1.0000 </r>
       <r>    6.3327    1.0000 </r>
       <r>    6.3680    1.0000 </r>
       <r>    6.4960    1.0000 </r>
       <r>    6.5933    1.0000 </r>
       <r>    6.6618    1.0000 </r>
       <r>    6.7218    1.0000 </r>
       <r>    6.8131    1.0000 </r>
       <r>    6.8745    1.0000 </r>
       <r>    6.9212    1.0000 </r>
       <r>    7.0285    1.0000 </r>
       <r>    7.1543    1.0000 </r>
       <r>    7.2293    1.0000 </r>
       <r>    7.3032    1.0000 </r>
       <r>    7.6349    1.0000 </r>
       <r>    7.6886    1.0000 </r>
       <r>    7.9512    0.9547 </r>
       <r>    7.9823    0.7913 </r>
       <r>    8.2400    0.0000 </r>
       <r>    8.3537    0.0000 </r>
       <r>    8.4441    0.0000 </r>
       <r>    8.5304    0.0000 </r>
       <r>    8.6379    0.0000 </r>
       <r>    8.6997    0.0000 </r>
       <r>    8.7543    0.0000 </r>
       <r>    8.7978    0.0000 </r>
       <r>    8.8641    0.0000 </r>
       <r>    8.9022    0.0000 </r>
       <r>    8.9705    0.0000 </r>
       <r>    9.0182    0.0000 </r>
       <r>    9.2493    0.0000 </r>
       <r>    9.2925    0.0000 </r>
       <r>    9.3229    0.0000 </r>
       <r>    9.3798    0.0000 </r>
       <r>    9.4157    0.0000 </r>
       <r>    9.4320    0.0000 </r>
       <r>    9.6037    0.0000 </r>
       <r>    9.7318    0.0000 </r>
       <r>    9.8193    0.0000 </r>
       <r>    9.8897    0.0000 </r>
       <r>   10.2085    0.0000 </r>
       <r>   10.2623    0.0000 </r>
       <r>   10.3236    0.0000 </r>
      </set>
      <set comment="kpoint 5">
       <r>   -3.0515    1.0000 </r>
       <r>   -1.8044    1.0000 </r>
       <r>   -0.9045    1.0000 </r>
       <r>   -0.8596    1.0000 </r>
       <r>   -0.7994    1.0000 </r>
       <r>   -0.6570    1.0000 </r>
       <r>    0.1879    1.0000 </r>
       <r>    0.3224    1.0000 </r>
       <r>    0.3896    1.0000 </r>
       <r>    0.4452    1.0000 </r>
       <r>    0.5684    1.0000 </r>
       <r>    1.3157    1.0000 </r>
       <r>    1.3939    1.0000 </r>
       <r>    1.4665    1.0000 </r>
       <r>    1.5017    1.0000 </r>
       <r>    2.2864    1.0000 </r>
       <r>    2.3510    1.0000 </r>
       <r>    2.4184    1.0000 </r>
       <r>    2.5186    1.0000 </r>
       <r>    2.5675    1.0000 </r>
       <r>    2.6345    1.0000 </r>
       <r>    2.7146    1.0000 </r>
       <r>    2.7392    1.0000 </r>
       <r>    3.7939    1.0000 </r>
       <r>    4.4795    1.0000 </r>
       <r>    4.5563    1.0000 </r>
       <r>    4.6270    1.0000 </r>
       <r>    4.6613    1.0000 </r>
       <r>    5.1734    1.0000 </r>
       <r>    5.1801    1.0000 </r>
       <r>    5.8014    1.0000 </r>
       <r>    5.8411    1.0000 </r>
       <r>    5.9244    1.0000 </r>
       <r>    6.0407    1.0000 </r>
       <r>    6.3236    1.0000 </r>
       <r>    6.3849    1.0000 </r>
       <r>    6.4618    1.0000 </r>
       <r>    6.4772    1.0000 </r>
       <r>    7.1712    1.0000 </r>
       <r>    7.2098    1.0000 </r>
       <r>    7.2573    1.0000 </r>
       <r>    7.3562    1.0000 </r>
       <r>    7.6178    1.0000 </r>
       <r>    7.6782    1.0000 </r>
       <r>    7.8220    1.0000 </r>
       <r>    7.9147    0.9968 </r>
       <r>    8.0039    0.5798 </r>
       <r>    8.0675    0.0551 </r>
       <r>    8.1062    0.0035 </r>
       <r>    8.2033    0.0000 </r>
       <r>    8.2477    0.0000 </r>
       <r>    8.3613    0.0000 </r>
       <r>    8.4279    0.0000 </r>
       <r>    8.4650    0.0000 </r>
       <r>    8.5356    0.0000 </r>
       <r>    8.5804    0.0000 </r>
       <r>    8.6669    0.0000 </r>
       <r>    8.7123    0.0000 </r>
       <r>    8.7674    0.0000 </r>
       <r>    9.7222    0.0000 </r>
       <r>    9.7620    0.0000 </r>
       <r>    9.7834    0.0000 </r>
       <r>    9.8564    0.0000 </r>
       <r>    9.9073    0.0000 </r>
       <r>    9.9529    0.0000 </r>
       <r>   10.0680    0.0000 </r>
       <r>   10.1030    0.0000 </r>
       <r>   10.1418    0.0000 </r>
       <r>   10.2089    0.0000 </r>
       <r>   10.2761    0.0000 </r>
       <r>   10.2982    0.0000 </r>
       <r>   10.3457    0.0000 </r>
      </set>
      <set comment="kpoint 6">
       <r>   -3.0510    1.0000 </r>
       <r>   -1.8118    1.0000 </r>
       <r>   -0.8872    1.0000 </r>
       <r>   -0.8414    1.0000 </r>
[...]
       <r>    2.7548    1.0000 </r>
       <r>    2.8073    1.0000 </r>
       <r>    2.8610    1.0000 </r>
       <r>    2.9115    1.0000 </r>
       <r>    2.9984    1.0000 </r>
       <r>    3.0825    1.0000 </r>
       <r>    3.1268    1.0000 </r>
       <r>    3.2321    1.0000 </r>
       <r>    3.2728    1.0000 </r>
       <r>    3.3346    1.0000 </r>
       <r>    3.3797    1.0000 </r>
       <r>    3.4228    1.0000 </r>
       <r>    3.4934    1.0000 </r>
       <r>    3.5740    1.0000 </r>
       <r>    3.6465    1.0000 </r>
       <r>    3.7256    1.0000 </r>
       <r>    6.3322    1.0000 </r>
       <r>    6.3749    1.0000 </r>
       <r>    6.4888    1.0000 </r>
       <r>    6.6019    1.0000 </r>
       <r>    6.6709    1.0000 </r>
       <r>    6.7403    1.0000 </r>
       <r>    7.0070    1.0000 </r>
       <r>    7.0436    1.0000 </r>
       <r>    7.0897    1.0000 </r>
       <r>    7.1150    1.0000 </r>
       <r>    7.1637    1.0000 </r>
       <r>    7.2107    1.0000 </r>
       <r>    7.3156    1.0000 </r>
       <r>    7.3476    1.0000 </r>
       <r>    7.4033    1.0000 </r>
       <r>    7.4457    1.0000 </r>
       <r>    7.4856    1.0000 </r>
       <r>    7.5080    1.0000 </r>
       <r>    7.7797    1.0000 </r>
       <r>    7.8475    1.0000 </r>
       <r>    7.8999    0.9992 </r>
       <r>    8.0569    0.0972 </r>
       <r>    8.1406    0.0001 </r>
       <r>    8.1924    0.0000 </r>
       <r>   10.3915    0.0000 </r>
       <r>   10.7092    0.0000 </r>
       <r>   10.7864    0.0000 </r>
       <r>   10.8423    0.0000 </r>
       <r>   10.9484    0.0000 </r>
       <r>   10.9942    0.0000 </r>
       <r>   11.0149    0.0000 </r>
       <r>   11.0593    0.0000 </r>
       <r>   11.0775    0.0000 </r>
       <r>   11.0928    0.0000 </r>
       <r>   11.1378    0.0000 </r>
       <r>   11.1858    0.0000 </r>
       <r>   11.2092    0.0000 </r>
       <r>   11.3346    0.0000 </r>
       <r>   11.3684    0.0000 </r>
       <r>   11.4399    0.0000 </r>
      </set>
     </set>
    </set>
   </array>
  </eigenvalues>
  <separator name="orbital magnetization" >
   <v name="MAGDIPOLOUT">      0.00000000      0.00000000      0.00000000</v>
  </separator>
  <dos>
   <i name="efermi">      8.01099322 </i>
   <total>
    <array>
     <dimension dim="1">gridpoints</dimension>
     <dimension dim="2">spin</dimension>
     <field>energy</field>
     <field>total</field>
     <field>integrated</field>
     <set>
      <set comment="spin 1">
       <r>    -3.9072     0.0000     0.0000 </r>
       <r>    -3.8526     0.0000     0.0000 </r>
       <r>    -3.7979     0.0000     0.0000 </r>
       <r>    -3.7433     0.0000     0.0000 </r>
       <r>    -3.6887     0.0000     0.0000 </r>
       <r>    -3.6340     0.0000     0.0000 </r>
       <r>    -3.5794     0.0000     0.0000 </r>
       <r>    -3.5247     0.0000     0.0000 </r>
       <r>    -3.4701     0.0000     0.0000 </r>
       <r>    -3.4154     0.0000     0.0000 </r>
       <r>    -3.3608     0.0000     0.0000 </r>
       <r>    -3.3062     0.0000     0.0000 </r>
       <r>    -3.2515     0.0004     0.0000 </r>
       <r>    -3.1969     0.0227     0.0013 </r>
       <r>    -3.1422     0.2477     0.0148 </r>
       <r>    -3.0876     0.7310     0.0547 </r>
       <r>    -3.0330     1.1673     0.1185 </r>
       <r>    -2.9783     1.5340     0.2023 </r>
       <r>    -2.9237     1.5277     0.2858 </r>
       <r>    -2.8690     2.1415     0.4028 </r>
       <r>    -2.8144     2.0888     0.5170 </r>
       <r>    -2.7598     2.3296     0.6443 </r>
       <r>    -2.7051     2.1989     0.7644 </r>
       <r>    -2.6505     3.0194     0.9294 </r>
       <r>    -2.5958     3.0965     1.0986 </r>
       <r>    -2.5412     2.6005     1.2407 </r>
       <r>    -2.4865     2.2551     1.3639 </r>
       <r>    -2.4319     3.4466     1.5522 </r>
       <r>    -2.3773     3.5677     1.7472 </r>
       <r>    -2.3226     3.5542     1.9414 </r>
       <r>    -2.2680     2.9928     2.1049 </r>
       <r>    -2.2133     3.5314     2.2979 </r>
       <r>    -2.1587     3.8895     2.5104 </r>
       <r>    -2.1041     3.7270     2.7140 </r>
       <r>    -2.0494     4.2932     2.9486 </r>
       <r>    -1.9948     4.4196     3.1901 </r>
       <r>    -1.9401     4.1399     3.4163 </r>
       <r>    -1.8855     3.3904     3.6016 </r>
       <r>    -1.8309     3.2405     3.7786 </r>
       <r>    -1.7762     3.8864     3.9910 </r>
       <r>    -1.7216     5.4166     4.2870 </r>
       <r>    -1.6669     5.4510     4.5848 </r>
       <r>    -1.6123     4.2567     4.8174 </r>
       <r>    -1.5577     3.9290     5.0321 </r>
       <r>    -1.5030     4.5043     5.2782 </r>
       <r>    -1.4484     4.4584     5.5218 </r>
       <r>    -1.3937     4.8581     5.7873 </r>
       <r>    -1.3391     5.7897     6.1036 </r>
       <r>    -1.2844     6.0632     6.4349 </r>
       <r>    -1.2298     4.4184     6.6764 </r>
       <r>    -1.1752     3.9844     6.8941 </r>
       <r>    -1.1205     5.7555     7.2086 </r>
       <r>    -1.0659     6.5428     7.5661 </r>
       <r>    -1.0112     5.8821     7.8875 </r>
       <r>    -0.9566     4.6879     8.1436 </r>
       <r>    -0.9020     4.5497     8.3922 </r>
       <r>    -0.8473     5.3737     8.6858 </r>
       <r>    -0.7927     6.3960     9.0353 </r>
       <r>    -0.7380     6.4517     9.3878 </r>
       <r>    -0.6834     7.4733     9.7962 </r>
       <r>    -0.6288     5.6627    10.1056 </r>
       <r>    -0.5741     5.2082    10.3902 </r>
       <r>    -0.5195     4.9368    10.6599 </r>
       <r>    -0.4648     5.4341    10.9569 </r>
       <r>    -0.4102     7.3491    11.3584 </r>
       <r>    -0.3555     7.0933    11.7460 </r>
       <r>    -0.3009     6.6954    12.1119 </r>
       <r>    -0.2463     6.1442    12.4476 </r>
       <r>    -0.1916     6.0707    12.7793 </r>
       <r>    -0.1370     6.3044    13.1238 </r>
       <r>    -0.0823     6.3908    13.4730 </r>
       <r>    -0.0277     7.0733    13.8595 </r>
       <r>     0.0269     7.3106    14.2589 </r>
       <r>     0.0816     6.5780    14.6184 </r>
       <r>     0.1362     6.2295    14.9587 </r>
       <r>     0.1909     6.3858    15.3077 </r>
       <r>     0.2455     7.3208    15.7077 </r>
       <r>     0.3001     6.9650    16.0883 </r>
       <r>     0.3548     6.7888    16.4592 </r>
       <r>     0.4094     6.9938    16.8414 </r>
       <r>     0.4641     7.7822    17.2666 </r>
       <r>     0.5187     7.6072    17.6823 </r>
       <r>     0.5734     7.1458    18.0727 </r>
       <r>     0.6280     7.3140    18.4724 </r>
       <r>     0.6826     7.2169    18.8667 </r>
       <r>     0.7373     7.0434    19.2516 </r>
       <r>     0.7919     5.7421    19.5653 </r>
       <r>     0.8466     6.6389    19.9281 </r>
       <r>     0.9012     8.4131    20.3878 </r>
       <r>     0.9558     8.8704    20.8725 </r>
       <r>     1.0105     8.6692    21.3462 </r>
       <r>     1.0651     9.3917    21.8593 </r>
       <r>     1.1198     7.6529    22.2775 </r>
       <r>     1.1744     6.4597    22.6305 </r>
       <r>     1.2290     7.3442    23.0317 </r>
       <r>     1.2837     7.9255    23.4648 </r>
       <r>     1.3383     8.3102    23.9189 </r>
       <r>     1.3930     8.4642    24.3814 </r>
       <r>     1.4476     6.7644    24.7510 </r>
       <r>     1.5023     7.3039    25.1501 </r>
       <r>     1.5569     9.8606    25.6889 </r>
       <r>     1.6115     9.8366    26.2264 </r>
       <r>     1.6662     7.9228    26.6593 </r>
       <r>     1.7208     6.7715    27.0293 </r>
       <r>     1.7755     8.1556    27.4749 </r>
       <r>     1.8301    10.0059    28.0216 </r>
       <r>     1.8847     9.6154    28.5470 </r>
       <r>     1.9394     9.8647    29.0861 </r>
       <r>     1.9940     9.0425    29.5801 </r>
       <r>     2.0487     7.0824    29.9671 </r>
       <r>     2.1033     6.2993    30.3113 </r>
       <r>     2.1579     7.7146    30.7329 </r>
       <r>     2.2126     9.7054    31.2632 </r>
       <r>     2.2672    10.2422    31.8228 </r>
       <r>     2.3219     9.7959    32.3581 </r>
       <r>     2.3765     7.8505    32.7871 </r>
       <r>     2.4312     8.1445    33.2321 </r>
       <r>     2.4858    11.6861    33.8706 </r>
       <r>     2.5404    10.9403    34.4684 </r>
       <r>     2.5951     8.6338    34.9402 </r>
       <r>     2.6497     9.3470    35.4509 </r>
       <r>     2.7044     9.4878    35.9693 </r>
       <r>     2.7590     8.2445    36.4198 </r>
       <r>     2.8136     8.3012    36.8734 </r>
       <r>     2.8683     9.1508    37.3734 </r>
       <r>     2.9229     8.9954    37.8649 </r>
       <r>     2.9776     8.5358    38.3313 </r>
       <r>     3.0322     9.4590    38.8482 </r>
       <r>     3.0868    11.1296    39.4563 </r>
       <r>     3.1415    11.5244    40.0860 </r>
       <r>     3.1961    10.9824    40.6861 </r>
       <r>     3.2508    10.9856    41.2864 </r>
       <r>     3.3054    10.8219    41.8777 </r>
       <r>     3.3601     8.5554    42.3452 </r>
       <r>     3.4147     7.9260    42.7783 </r>
       <r>     3.4693     9.2083    43.2814 </r>
       <r>     3.5240    10.8501    43.8743 </r>
       <r>     3.5786    11.1392    44.4829 </r>
       <r>     3.6333    10.3359    45.0477 </r>
       <r>     3.6879    10.5520    45.6243 </r>
       <r>     3.7425     9.9187    46.1663 </r>
       <r>     3.7972     8.8269    46.6486 </r>
       <r>     3.8518     8.9808    47.1393 </r>
       <r>     3.9065    11.1497    47.7485 </r>
       <r>     3.9611    11.8811    48.3977 </r>
       <r>     4.0157    10.8626    48.9913 </r>
       <r>     4.0704    11.6441    49.6275 </r>
       <r>     4.1250    10.2969    50.1901 </r>
       <r>     4.1797    10.0944    50.7417 </r>
       <r>     4.2343    11.0567    51.3459 </r>
       <r>     4.2889    11.6711    51.9836 </r>
       <r>     4.3436    12.7224    52.6787 </r>
       <r>     4.3982    10.4264    53.2485 </r>
       <r>     4.4529     9.2428    53.7535 </r>
       <r>     4.5075     9.5235    54.2739 </r>
       <r>     4.5622     8.9559    54.7632 </r>
       <r>     4.6168    10.7018    55.3480 </r>
       <r>     4.6714    11.6370    55.9838 </r>
       <r>     4.7261    12.7554    56.6808 </r>
       <r>     4.7807    13.6629    57.4274 </r>
       <r>     4.8354    12.3864    58.1042 </r>
       <r>     4.8900    12.7835    58.8027 </r>
       <r>     4.9446    12.4849    59.4849 </r>
       <r>     4.9993    10.4617    60.0565 </r>
       <r>     5.0539     9.8245    60.5933 </r>
       <r>     5.1086    11.6170    61.2281 </r>
       <r>     5.1632    12.9400    61.9352 </r>
       <r>     5.2178    12.4417    62.6150 </r>
       <r>     5.2725    12.0749    63.2748 </r>
       <r>     5.3271    12.4121    63.9530 </r>
       <r>     5.3818    12.7213    64.6481 </r>
       <r>     5.4364    11.2950    65.2653 </r>
       <r>     5.4911    10.9329    65.8626 </r>
       <r>     5.5457    12.1890    66.5287 </r>
       <r>     5.6003    13.1460    67.2470 </r>
       <r>     5.6550    12.4818    67.9290 </r>
       <r>     5.7096    11.7516    68.5711 </r>
       <r>     5.7643    11.3812    69.1930 </r>
       <r>     5.8189    10.2080    69.7508 </r>
       <r>     5.8735    11.5982    70.3845 </r>
       <r>     5.9282    12.4065    71.0624 </r>
       <r>     5.9828    10.3146    71.6260 </r>
       <r>     6.0375     9.6643    72.1541 </r>
       <r>     6.0921    10.7665    72.7424 </r>
       <r>     6.1467    12.5784    73.4297 </r>
       <r>     6.2014    12.2614    74.0997 </r>
       <r>     6.2560    10.7935    74.6894 </r>
       <r>     6.3107    11.5832    75.3223 </r>
       <r>     6.3653    12.2217    75.9902 </r>
       <r>     6.4200    12.8368    76.6916 </r>
       <r>     6.4746    12.3239    77.3650 </r>
       <r>     6.5292    10.0672    77.9150 </r>
       <r>     6.5839     9.8527    78.4534 </r>
       <r>     6.6385    10.7346    79.0400 </r>
       <r>     6.6932    11.3524    79.6603 </r>
       <r>     6.7478    11.5899    80.2936 </r>
       <r>     6.8024    11.7908    80.9378 </r>
       <r>     6.8571    12.8677    81.6409 </r>
       <r>     6.9117    13.7645    82.3930 </r>
       <r>     6.9664    13.5448    83.1331 </r>
       <r>     7.0210    14.2903    83.9140 </r>
       <r>     7.0756    13.0073    84.6247 </r>
       <r>     7.1303    11.5581    85.2563 </r>
       <r>     7.1849    12.3609    85.9317 </r>
       <r>     7.2396    11.4125    86.5553 </r>
       <r>     7.2942    11.2671    87.1709 </r>
       <r>     7.3489    13.4319    87.9048 </r>
       <r>     7.4035    13.6162    88.6488 </r>
       <r>     7.4581    10.2400    89.2084 </r>
       <r>     7.5128    11.2441    89.8227 </r>
       <r>     7.5674    13.2743    90.5481 </r>
       <r>     7.6221    12.4632    91.2291 </r>
       <r>     7.6767    13.3030    91.9560 </r>
       <r>     7.7313    12.3950    92.6332 </r>
       <r>     7.7860    10.7029    93.2181 </r>
       <r>     7.8406     9.9888    93.7639 </r>
       <r>     7.8953    12.2754    94.4346 </r>
       <r>     7.9499    13.8734    95.1927 </r>
       <r>     8.0045    13.2961    95.9192 </r>
       <r>     8.0592    12.4645    96.6002 </r>
       <r>     8.1138    13.9254    97.3611 </r>
       <r>     8.1685    14.7199    98.1655 </r>
       <r>     8.2231    12.6760    98.8581 </r>
       <r>     8.2778    14.5975    99.6557 </r>
       <r>     8.3324    15.1459   100.4833 </r>
       <r>     8.3870    14.6758   101.2852 </r>
       <r>     8.4417    13.9956   102.0499 </r>
       <r>     8.4963    13.2571   102.7743 </r>
       <r>     8.5510    13.1025   103.4903 </r>
       <r>     8.6056    10.2003   104.0476 </r>
       <r>     8.6602    11.1106   104.6547 </r>
       <r>     8.7149    13.0530   105.3679 </r>
       <r>     8.7695    12.2269   106.0360 </r>
       <r>     8.8242    12.2589   106.7059 </r>
       <r>     8.8788    12.8580   107.4084 </r>
       <r>     8.9334    13.5939   108.1512 </r>
       <r>     8.9881    15.4873   108.9975 </r>
       <r>     9.0427    16.0899   109.8766 </r>
       <r>     9.0974    15.3787   110.7169 </r>
       <r>     9.1520    15.5768   111.5681 </r>
       <r>     9.2066    15.1012   112.3932 </r>
       <r>     9.2613    13.9708   113.1566 </r>
       <r>     9.3159    12.9863   113.8662 </r>
       <r>     9.3706    11.7217   114.5067 </r>
       <r>     9.4252    11.6769   115.1447 </r>
       <r>     9.4799    12.4749   115.8264 </r>
       <r>     9.5345    12.3821   116.5029 </r>
       <r>     9.5891    13.3020   117.2298 </r>
       <r>     9.6438    13.3699   117.9603 </r>
       <r>     9.6984    13.1658   118.6797 </r>
       <r>     9.7531    14.9074   119.4943 </r>
       <r>     9.8077    16.7591   120.4100 </r>
       <r>     9.8623    16.5073   121.3120 </r>
       <r>     9.9170    14.8003   122.1207 </r>
       <r>     9.9716    14.3021   122.9022 </r>
       <r>    10.0263    15.1952   123.7324 </r>
       <r>    10.0809    14.3247   124.5152 </r>
       <r>    10.1355    12.0820   125.1753 </r>
       <r>    10.1902    12.4887   125.8577 </r>
       <r>    10.2448    14.5271   126.6515 </r>
       <r>    10.2995    14.1123   127.4226 </r>
       <r>    10.3541    12.7819   128.1210 </r>
       <r>    10.4088    13.7440   128.8720 </r>
       <r>    10.4634    17.3758   129.8215 </r>
       <r>    10.5180    16.5448   130.7255 </r>
       <r>    10.5727    14.9994   131.5451 </r>
       <r>    10.6273    15.2171   132.3766 </r>
       <r>    10.6820    14.3122   133.1586 </r>
       <r>    10.7366    14.8686   133.9710 </r>
       <r>    10.7912    14.3253   134.7538 </r>
       <r>    10.8459    12.8294   135.4548 </r>
       <r>    10.9005    14.0584   136.2229 </r>
       <r>    10.9552    13.3704   136.9535 </r>
       <r>    11.0098    12.5393   137.6387 </r>
       <r>    11.0644    13.0009   138.3491 </r>
       <r>    11.1191    12.5181   139.0331 </r>
       <r>    11.1737    11.4164   139.6569 </r>
       <r>    11.2284    10.9835   140.2570 </r>
       <r>    11.2830    11.6618   140.8942 </r>
       <r>    11.3377    11.3900   141.5166 </r>
       <r>    11.3923    11.1638   142.1266 </r>
       <r>    11.4469    10.3317   142.6911 </r>
       <r>    11.5016     6.9828   143.0727 </r>
       <r>    11.5562     4.6725   143.3280 </r>
       <r>    11.6109     4.8314   143.5920 </r>
       <r>    11.6655     4.0986   143.8159 </r>
       <r>    11.7201     2.4322   143.9488 </r>
       <r>    11.7748     0.8447   143.9950 </r>
       <r>    11.8294     0.0899   143.9999 </r>
       <r>    11.8841     0.0018   144.0000 </r>
       <r>    11.9387     0.0000   144.0000 </r>
       <r>    11.9933     0.0000   144.0000 </r>
       <r>    12.0480     0.0000   144.0000 </r>
       <r>    12.1026     0.0000   144.0000 </r>
       <r>    12.1573     0.0000   144.0000 </r>
       <r>    12.2119     0.0000   144.0000 </r>
       <r>    12.2666     0.0000   144.0000 </r>
       <r>    12.3212     0.0000   144.0000 </r>
       <r>    12.3758     0.0000   144.0000 </r>
       <r>    12.4305     0.0000   144.0000 </r>
       <r>    12.4851     0.0000   144.0000 </r>
      </set>
     </set>
    </array>
   </total>
  </dos>
 </calculation>
 <structure name="finalpos" >
  <crystal>
   <varray name="basis" >
    <v>       8.07809510       0.00000000       0.00000000 </v>
    <v>       0.00000000       8.07809510       0.00000000 </v>
    <v>       0.00000000       0.00000000       8.07809510 </v>
   </varray>
   <i name="volume">    527.14110776 </i>
   <varray name="rec_basis" >
    <v>       0.12379156       0.00000000       0.00000000 </v>
    <v>       0.00000000       0.12379156       0.00000000 </v>
    <v>       0.00000000       0.00000000       0.12379156 </v>
   </varray>
  </crystal>
  <varray name="positions" >
   <v>       0.00632071       0.99694722       0.00732096 </v>
   <v>       0.00824263       0.25054287       0.25838765 </v>
   <v>       0.25215951       0.98107776       0.24520369 </v>
   <v>       0.23487622       0.23978154       0.98394628 </v>
   <v>       0.98904740       0.01653012       0.48391955 </v>
   <v>       0.99671075       0.24995363       0.75485965 </v>
   <v>       0.23623341       0.99980195       0.72811066 </v>
   <v>       0.24222247       0.26151563       0.50073503 </v>
   <v>       0.00337180       0.50277024       0.00142809 </v>
   <v>       0.98836732       0.74963689       0.22832533 </v>
   <v>       0.23512467       0.49356038       0.25449301 </v>
   <v>       0.26530653       0.74258124       0.00856887 </v>
   <v>       0.00278292       0.50364933       0.51204933 </v>
   <v>       0.00537695       0.74649984       0.75965804 </v>
   <v>       0.25043232       0.50614785       0.75062924 </v>
   <v>       0.24447726       0.75337624       0.48730868 </v>
   <v>       0.50797520       0.01148454       0.00217773 </v>
   <v>       0.48999934       0.25970501       0.25970211 </v>
   <v>       0.75500715       0.00820092       0.25097581 </v>
   <v>       0.76802771       0.23808778       0.99080112 </v>
   <v>       0.51077945       0.98593761       0.49608667 </v>
   <v>       0.50588464       0.24315023       0.74573334 </v>
   <v>       0.74513637       0.97842986       0.75855640 </v>
   <v>       0.74463237       0.25500418       0.48083505 </v>
   <v>       0.50066836       0.47908734       0.99760589 </v>
   <v>       0.52166281       0.75372548       0.21944978 </v>
   <v>       0.75687564       0.51416423       0.25449004 </v>
   <v>       0.74007157       0.74459963       0.98741630 </v>
   <v>       0.49172950       0.52035838       0.50052798 </v>
   <v>       0.49182348       0.75135419       0.75663500 </v>
   <v>       0.74923784       0.48316010       0.74874381 </v>
   <v>       0.75005179       0.74654986       0.49472086 </v>
  </varray>
 </structure>
</modeling>
