<?xml version="1.0" encoding="ISO-8859-1"?>
<modeling>
 <generator>
  <i name="program" type="string">vasp </i>
  <i name="version" type="string">6.2.0  </i>
  <i name="subversion" type="string">18Jan21 (build Mar 25 2021 14:28:09) complex                          parallel </i>
  <i name="platform" type="string">LinuxGNU </i>
  <i name="date" type="string">2022 08 19 </i>
  <i name="time" type="string">11:23:04 </i>
 </generator>
 <incar>
  <i type="string" name="SYSTEM">al</i>
  <i type="int" name="ISTART">     0</i>
  <i type="string" name="PREC">Accurate</i>
  <i type="string" name="ALGO">Normal</i>
  <i type="int" name="NSIM">     8</i>
  <i type="int" name="NELM">   200</i>
  <i type="int" name="IBRION">    -1</i>
  <i name="EDIFF">      0.00000100</i>
  <i type="int" name="NSW">     0</i>
  <i name="ENCUT">    600.00000000</i>
  <i type="string" name="LREAL">Auto</i>
  <i type="int" name="ISMEAR">     0</i>
  <i name="SIGMA">      0.05000000</i>
  <i type="int" name="LMAXPAW">    -1</i>
  <i type="logical" name="LWAVE"> F  </i>
  <i type="logical" name="LCHARG"> T  </i>
  <i type="string" name="GGA">PE</i>
 </incar>
 <primitive_cell>
  <structure name="primitive_cell" >
   <crystal>
    <varray name="basis" >
     <v>       8.07809510       0.00000000       0.00000000 </v>
     <v>       0.00000000       8.07809510       0.00000000 </v>
     <v>       0.00000000       0.00000000       8.07809510 </v>
    </varray>
    <i name="volume">    527.14110776 </i>
    <varray name="rec_basis" >
     <v>       0.12379156       0.00000000       0.00000000 </v>
     <v>       0.00000000       0.12379156       0.00000000 </v>
     <v>       0.00000000       0.00000000       0.12379156 </v>
    </varray>
   </crystal>
   <varray name="positions" >
    <v>       0.98474390       0.00011971       0.00581577 </v>
    <v>       0.98584850       0.25751115       0.26001129 </v>
    <v>       0.22989669       0.99155554       0.24716757 </v>
    <v>       0.23087154       0.24582821       0.99218062 </v>
    <v>       0.99396805       0.98780216       0.50810774 </v>
    <v>       0.00710779       0.23331967       0.74794170 </v>
    <v>       0.25672569       0.99739214       0.75304498 </v>
    <v>       0.25673719       0.23847562       0.49283753 </v>
    <v>       0.00877593       0.49286217       0.98477453 </v>
    <v>       0.99875792       0.73293781       0.24758586 </v>
    <v>       0.27332521       0.50195442       0.23168792 </v>
    <v>       0.23788858       0.75710503       0.98469948 </v>
    <v>       0.02273748       0.49729162       0.48097771 </v>
    <v>       0.99832450       0.74850446       0.75140734 </v>
    <v>       0.24578959       0.50670120       0.73331341 </v>
    <v>       0.25093926       0.75875038       0.50042228 </v>
    <v>       0.49383416       0.01143406       0.99846803 </v>
    <v>       0.52444323       0.23916036       0.24955515 </v>
    <v>       0.75745634       0.99044007       0.25593260 </v>
    <v>       0.75654522       0.26062228       0.00150020 </v>
    <v>       0.50459903       0.98160515       0.48596004 </v>
    <v>       0.48750815       0.26176657       0.73292108 </v>
    <v>       0.74566570       0.01184503       0.74385836 </v>
    <v>       0.75738907       0.25763957       0.52621651 </v>
    <v>       0.49722220       0.47961250       0.98335403 </v>
    <v>       0.48594522       0.75015719       0.24417228 </v>
    <v>       0.75442487       0.49624248       0.24573044 </v>
    <v>       0.74840520       0.73908499       0.01782591 </v>
    <v>       0.49420715       0.51372437       0.49390212 </v>
    <v>       0.51660917       0.76585703       0.75565492 </v>
    <v>       0.73268466       0.51769977       0.76502530 </v>
    <v>       0.75123886       0.74236937       0.48734926 </v>
   </varray>
  </structure>
  <varray name="primitive_index" >
   <v type="int" >        1 </v>
   <v type="int" >        2 </v>
   <v type="int" >        3 </v>
   <v type="int" >        4 </v>
   <v type="int" >        5 </v>
   <v type="int" >        6 </v>
   <v type="int" >        7 </v>
   <v type="int" >        8 </v>
   <v type="int" >        9 </v>
   <v type="int" >       10 </v>
   <v type="int" >       11 </v>
   <v type="int" >       12 </v>
   <v type="int" >       13 </v>
   <v type="int" >       14 </v>
   <v type="int" >       15 </v>
   <v type="int" >       16 </v>
   <v type="int" >       17 </v>
   <v type="int" >       18 </v>
   <v type="int" >       19 </v>
   <v type="int" >       20 </v>
   <v type="int" >       21 </v>
   <v type="int" >       22 </v>
   <v type="int" >       23 </v>
   <v type="int" >       24 </v>
   <v type="int" >       25 </v>
   <v type="int" >       26 </v>
   <v type="int" >       27 </v>
   <v type="int" >       28 </v>
   <v type="int" >       29 </v>
   <v type="int" >       30 </v>
   <v type="int" >       31 </v>
   <v type="int" >       32 </v>
  </varray>
 </primitive_cell>
 <kpoints>
  <generation param="Gamma">
   <v type="int" name="divisions">       9        9        9 </v>
   <v name="usershift">      0.00000000       0.00000000       0.00000000 </v>
   <v name="genvec1">      0.11111111       0.00000000       0.00000000 </v>
   <v name="genvec2">      0.00000000       0.11111111       0.00000000 </v>
   <v name="genvec3">      0.00000000       0.00000000       0.11111111 </v>
   <v name="shift">      0.00000000       0.00000000       0.00000000 </v>
  </generation>
  <varray name="kpointlist" >
   <v>       0.00000000       0.00000000       0.00000000 </v>
   <v>       0.11111111       0.00000000       0.00000000 </v>
   <v>       0.00000000       0.11111111       0.00000000 </v>
   <v>       0.00000000       0.00000000       0.11111111 </v>
   <v>       0.22222222       0.00000000       0.00000000 </v>
   <v>       0.00000000       0.22222222       0.00000000 </v>
   <v>       0.00000000       0.00000000       0.22222222 </v>
   <v>       0.33333333       0.00000000       0.00000000 </v>
   <v>       0.00000000       0.33333333       0.00000000 </v>
   <v>       0.00000000       0.00000000       0.33333333 </v>
   <v>       0.44444444       0.00000000       0.00000000 </v>
   <v>       0.00000000       0.44444444       0.00000000 </v>
   <v>       0.00000000       0.00000000       0.44444444 </v>
   <v>       0.11111111       0.11111111       0.00000000 </v>
   <v>       0.00000000       0.11111111       0.11111111 </v>
   <v>       0.11111111       0.00000000       0.11111111 </v>
   <v>      -0.11111111       0.11111111       0.00000000 </v>
   <v>      -0.11111111       0.00000000       0.11111111 </v>
   <v>       0.00000000      -0.11111111       0.11111111 </v>
   <v>       0.22222222       0.11111111       0.00000000 </v>
   <v>       0.00000000       0.22222222       0.11111111 </v>
   <v>       0.11111111       0.00000000       0.22222222 </v>
   <v>      -0.11111111       0.22222222       0.00000000 </v>
   <v>      -0.22222222       0.00000000       0.11111111 </v>
   <v>       0.00000000       0.11111111       0.22222222 </v>
   <v>       0.00000000      -0.22222222       0.11111111 </v>
   <v>      -0.11111111       0.00000000       0.22222222 </v>
   <v>       0.22222222       0.00000000       0.11111111 </v>
   <v>       0.00000000      -0.11111111       0.22222222 </v>
   <v>       0.22222222      -0.11111111       0.00000000 </v>
   <v>       0.11111111       0.22222222       0.00000000 </v>
   <v>       0.33333333       0.11111111       0.00000000 </v>
   <v>       0.00000000       0.33333333       0.11111111 </v>
   <v>       0.11111111       0.00000000       0.33333333 </v>
   <v>      -0.11111111       0.33333333       0.00000000 </v>
   <v>      -0.33333333       0.00000000       0.11111111 </v>
   <v>       0.00000000       0.11111111       0.33333333 </v>
   <v>       0.00000000      -0.33333333       0.11111111 </v>
   <v>      -0.11111111       0.00000000       0.33333333 </v>
   <v>       0.33333333       0.00000000       0.11111111 </v>
   <v>       0.00000000      -0.11111111       0.33333333 </v>
   <v>       0.33333333      -0.11111111       0.00000000 </v>
   <v>       0.11111111       0.33333333       0.00000000 </v>
   <v>       0.44444444       0.11111111       0.00000000 </v>
   <v>       0.00000000       0.44444444       0.11111111 </v>
   <v>       0.11111111       0.00000000       0.44444444 </v>
   <v>      -0.11111111       0.44444444       0.00000000 </v>
   <v>      -0.44444444       0.00000000       0.11111111 </v>
   <v>       0.00000000       0.11111111       0.44444444 </v>
   <v>       0.00000000      -0.44444444       0.11111111 </v>
   <v>      -0.11111111       0.00000000       0.44444444 </v>
   <v>       0.44444444       0.00000000       0.11111111 </v>
   <v>       0.00000000      -0.11111111       0.44444444 </v>
   <v>       0.44444444      -0.11111111       0.00000000 </v>
   <v>       0.11111111       0.44444444       0.00000000 </v>
   <v>       0.22222222       0.22222222       0.00000000 </v>
   <v>       0.00000000       0.22222222       0.22222222 </v>
   <v>       0.22222222       0.00000000       0.22222222 </v>
   <v>      -0.22222222       0.22222222       0.00000000 </v>
   <v>      -0.22222222       0.00000000       0.22222222 </v>
   <v>       0.00000000      -0.22222222       0.22222222 </v>
   <v>       0.33333333       0.22222222       0.00000000 </v>
   <v>       0.00000000       0.33333333       0.22222222 </v>
   <v>       0.22222222       0.00000000       0.33333333 </v>
   <v>      -0.22222222       0.33333333       0.00000000 </v>
   <v>      -0.33333333       0.00000000       0.22222222 </v>
   <v>       0.00000000       0.22222222       0.33333333 </v>
   <v>       0.00000000      -0.33333333       0.22222222 </v>
   <v>      -0.22222222       0.00000000       0.33333333 </v>
   <v>       0.33333333       0.00000000       0.22222222 </v>
   <v>       0.00000000      -0.22222222       0.33333333 </v>
   <v>       0.33333333      -0.22222222       0.00000000 </v>
   <v>       0.22222222       0.33333333       0.00000000 </v>
   <v>       0.44444444       0.22222222       0.00000000 </v>
   <v>       0.00000000       0.44444444       0.22222222 </v>
   <v>       0.22222222       0.00000000       0.44444444 </v>
   <v>      -0.22222222       0.44444444       0.00000000 </v>
   <v>      -0.44444444       0.00000000       0.22222222 </v>
   <v>       0.00000000       0.22222222       0.44444444 </v>
   <v>       0.00000000      -0.44444444       0.22222222 </v>
   <v>      -0.22222222       0.00000000       0.44444444 </v>
   <v>       0.44444444       0.00000000       0.22222222 </v>
   <v>       0.00000000      -0.22222222       0.44444444 </v>
   <v>       0.44444444      -0.22222222       0.00000000 </v>
   <v>       0.22222222       0.44444444       0.00000000 </v>
   <v>       0.33333333       0.33333333       0.00000000 </v>
   <v>       0.00000000       0.33333333       0.33333333 </v>
   <v>       0.33333333       0.00000000       0.33333333 </v>
   <v>      -0.33333333       0.33333333       0.00000000 </v>
   <v>      -0.33333333       0.00000000       0.33333333 </v>
   <v>       0.00000000      -0.33333333       0.33333333 </v>
   <v>       0.44444444       0.33333333       0.00000000 </v>
   <v>       0.00000000       0.44444444       0.33333333 </v>
   <v>       0.33333333       0.00000000       0.44444444 </v>
   <v>      -0.33333333       0.44444444       0.00000000 </v>
   <v>      -0.44444444       0.00000000       0.33333333 </v>
   <v>       0.00000000       0.33333333       0.44444444 </v>
   <v>       0.00000000      -0.44444444       0.33333333 </v>
   <v>      -0.33333333       0.00000000       0.44444444 </v>
   <v>       0.44444444       0.00000000       0.33333333 </v>
   <v>       0.00000000      -0.33333333       0.44444444 </v>
   <v>       0.44444444      -0.33333333       0.00000000 </v>
   <v>       0.33333333       0.44444444       0.00000000 </v>
   <v>       0.44444444       0.44444444       0.00000000 </v>
   <v>       0.00000000       0.44444444       0.44444444 </v>
   <v>       0.44444444       0.00000000       0.44444444 </v>
   <v>      -0.44444444       0.44444444       0.00000000 </v>
   <v>      -0.44444444       0.00000000       0.44444444 </v>
   <v>       0.00000000      -0.44444444       0.44444444 </v>
   <v>       0.11111111       0.11111111       0.11111111 </v>
   <v>      -0.11111111       0.11111111       0.11111111 </v>
   <v>      -0.11111111      -0.11111111       0.11111111 </v>
   <v>       0.11111111      -0.11111111       0.11111111 </v>
   <v>       0.22222222       0.11111111       0.11111111 </v>
   <v>       0.11111111       0.22222222       0.11111111 </v>
   <v>       0.11111111       0.11111111       0.22222222 </v>
   <v>      -0.11111111       0.22222222       0.11111111 </v>
   <v>      -0.22222222       0.11111111       0.11111111 </v>
   <v>      -0.11111111       0.11111111       0.22222222 </v>
   <v>      -0.22222222      -0.11111111       0.11111111 </v>
   <v>      -0.11111111      -0.22222222       0.11111111 </v>
   <v>      -0.11111111      -0.11111111       0.22222222 </v>
   <v>       0.11111111      -0.22222222       0.11111111 </v>
   <v>       0.22222222      -0.11111111       0.11111111 </v>
   <v>       0.11111111      -0.11111111       0.22222222 </v>
   <v>       0.33333333       0.11111111       0.11111111 </v>
   <v>       0.11111111       0.33333333       0.11111111 </v>
   <v>       0.11111111       0.11111111       0.33333333 </v>
   <v>      -0.11111111       0.33333333       0.11111111 </v>
   <v>      -0.33333333       0.11111111       0.11111111 </v>
   <v>      -0.11111111       0.11111111       0.33333333 </v>
   <v>      -0.33333333      -0.11111111       0.11111111 </v>
   <v>      -0.11111111      -0.33333333       0.11111111 </v>
   <v>      -0.11111111      -0.11111111       0.33333333 </v>
   <v>       0.11111111      -0.33333333       0.11111111 </v>
   <v>       0.33333333      -0.11111111       0.11111111 </v>
   <v>       0.11111111      -0.11111111       0.33333333 </v>
   <v>       0.44444444       0.11111111       0.11111111 </v>
   <v>       0.11111111       0.44444444       0.11111111 </v>
   <v>       0.11111111       0.11111111       0.44444444 </v>
   <v>      -0.11111111       0.44444444       0.11111111 </v>
   <v>      -0.44444444       0.11111111       0.11111111 </v>
   <v>      -0.11111111       0.11111111       0.44444444 </v>
   <v>      -0.44444444      -0.11111111       0.11111111 </v>
   <v>      -0.11111111      -0.44444444       0.11111111 </v>
   <v>      -0.11111111      -0.11111111       0.44444444 </v>
   <v>       0.11111111      -0.44444444       0.11111111 </v>
   <v>       0.44444444      -0.11111111       0.11111111 </v>
   <v>       0.11111111      -0.11111111       0.44444444 </v>
   <v>       0.22222222       0.22222222       0.11111111 </v>
   <v>       0.11111111       0.22222222       0.22222222 </v>
   <v>       0.22222222       0.11111111       0.22222222 </v>
   <v>      -0.22222222       0.22222222       0.11111111 </v>
   <v>      -0.22222222       0.11111111       0.22222222 </v>
   <v>      -0.11111111       0.22222222       0.22222222 </v>
   <v>      -0.22222222      -0.22222222       0.11111111 </v>
   <v>      -0.11111111      -0.22222222       0.22222222 </v>
   <v>      -0.22222222      -0.11111111       0.22222222 </v>
   <v>       0.22222222      -0.22222222       0.11111111 </v>
   <v>       0.22222222      -0.11111111       0.22222222 </v>
   <v>       0.11111111      -0.22222222       0.22222222 </v>
   <v>       0.33333333       0.22222222       0.11111111 </v>
   <v>       0.11111111       0.33333333       0.22222222 </v>
   <v>       0.22222222       0.11111111       0.33333333 </v>
   <v>      -0.22222222       0.33333333       0.11111111 </v>
   <v>      -0.33333333       0.11111111       0.22222222 </v>
   <v>      -0.11111111       0.22222222       0.33333333 </v>
   <v>      -0.33333333      -0.22222222       0.11111111 </v>
   <v>      -0.11111111      -0.33333333       0.22222222 </v>
   <v>      -0.22222222      -0.11111111       0.33333333 </v>
   <v>       0.22222222      -0.33333333       0.11111111 </v>
   <v>       0.33333333      -0.11111111       0.22222222 </v>
   <v>       0.11111111      -0.22222222       0.33333333 </v>
   <v>       0.11111111      -0.33333333      -0.22222222 </v>
   <v>       0.22222222      -0.11111111      -0.33333333 </v>
   <v>       0.33333333      -0.22222222      -0.11111111 </v>
   <v>       0.11111111       0.22222222      -0.33333333 </v>
   <v>       0.22222222       0.33333333      -0.11111111 </v>
   <v>       0.33333333       0.11111111      -0.22222222 </v>
   <v>      -0.22222222       0.11111111      -0.33333333 </v>
   <v>      -0.33333333       0.22222222      -0.11111111 </v>
   <v>      -0.11111111       0.33333333      -0.22222222 </v>
   <v>      -0.33333333      -0.11111111      -0.22222222 </v>
   <v>      -0.22222222      -0.33333333      -0.11111111 </v>
   <v>      -0.11111111      -0.22222222      -0.33333333 </v>
   <v>       0.44444444       0.22222222       0.11111111 </v>
   <v>       0.11111111       0.44444444       0.22222222 </v>
   <v>       0.22222222       0.11111111       0.44444444 </v>
   <v>      -0.22222222       0.44444444       0.11111111 </v>
   <v>      -0.44444444       0.11111111       0.22222222 </v>
   <v>      -0.11111111       0.22222222       0.44444444 </v>
   <v>      -0.44444444      -0.22222222       0.11111111 </v>
   <v>      -0.11111111      -0.44444444       0.22222222 </v>
   <v>      -0.22222222      -0.11111111       0.44444444 </v>
   <v>       0.22222222      -0.44444444       0.11111111 </v>
   <v>       0.44444444      -0.11111111       0.22222222 </v>
   <v>       0.11111111      -0.22222222       0.44444444 </v>
   <v>       0.11111111      -0.44444444      -0.22222222 </v>
   <v>       0.22222222      -0.11111111      -0.44444444 </v>
   <v>       0.44444444      -0.22222222      -0.11111111 </v>
   <v>       0.11111111       0.22222222      -0.44444444 </v>
   <v>       0.22222222       0.44444444      -0.11111111 </v>
   <v>       0.44444444       0.11111111      -0.22222222 </v>
   <v>      -0.22222222       0.11111111      -0.44444444 </v>
   <v>      -0.44444444       0.22222222      -0.11111111 </v>
   <v>      -0.11111111       0.44444444      -0.22222222 </v>
   <v>      -0.44444444      -0.11111111      -0.22222222 </v>
   <v>      -0.22222222      -0.44444444      -0.11111111 </v>
   <v>      -0.11111111      -0.22222222      -0.44444444 </v>
   <v>       0.33333333       0.33333333       0.11111111 </v>
   <v>       0.11111111       0.33333333       0.33333333 </v>
   <v>       0.33333333       0.11111111       0.33333333 </v>
   <v>      -0.33333333       0.33333333       0.11111111 </v>
   <v>      -0.33333333       0.11111111       0.33333333 </v>
   <v>      -0.11111111       0.33333333       0.33333333 </v>
   <v>      -0.33333333      -0.33333333       0.11111111 </v>
   <v>      -0.11111111      -0.33333333       0.33333333 </v>
   <v>      -0.33333333      -0.11111111       0.33333333 </v>
   <v>       0.33333333      -0.33333333       0.11111111 </v>
   <v>       0.33333333      -0.11111111       0.33333333 </v>
   <v>       0.11111111      -0.33333333       0.33333333 </v>
   <v>       0.44444444       0.33333333       0.11111111 </v>
   <v>       0.11111111       0.44444444       0.33333333 </v>
   <v>       0.33333333       0.11111111       0.44444444 </v>
   <v>      -0.33333333       0.44444444       0.11111111 </v>
   <v>      -0.44444444       0.11111111       0.33333333 </v>
   <v>      -0.11111111       0.33333333       0.44444444 </v>
   <v>      -0.44444444      -0.33333333       0.11111111 </v>
   <v>      -0.11111111      -0.44444444       0.33333333 </v>
   <v>      -0.33333333      -0.11111111       0.44444444 </v>
   <v>       0.33333333      -0.44444444       0.11111111 </v>
   <v>       0.44444444      -0.11111111       0.33333333 </v>
   <v>       0.11111111      -0.33333333       0.44444444 </v>
   <v>       0.11111111      -0.44444444      -0.33333333 </v>
   <v>       0.33333333      -0.11111111      -0.44444444 </v>
   <v>       0.44444444      -0.33333333      -0.11111111 </v>
   <v>       0.11111111       0.33333333      -0.44444444 </v>
   <v>       0.33333333       0.44444444      -0.11111111 </v>
   <v>       0.44444444       0.11111111      -0.33333333 </v>
   <v>      -0.33333333       0.11111111      -0.44444444 </v>
   <v>      -0.44444444       0.33333333      -0.11111111 </v>
   <v>      -0.11111111       0.44444444      -0.33333333 </v>
   <v>      -0.44444444      -0.11111111      -0.33333333 </v>
   <v>      -0.33333333      -0.44444444      -0.11111111 </v>
   <v>      -0.11111111      -0.33333333      -0.44444444 </v>
   <v>       0.44444444       0.44444444       0.11111111 </v>
   <v>       0.11111111       0.44444444       0.44444444 </v>
   <v>       0.44444444       0.11111111       0.44444444 </v>
   <v>      -0.44444444       0.44444444       0.11111111 </v>
   <v>      -0.44444444       0.11111111       0.44444444 </v>
   <v>      -0.11111111       0.44444444       0.44444444 </v>
   <v>      -0.44444444      -0.44444444       0.11111111 </v>
   <v>      -0.11111111      -0.44444444       0.44444444 </v>
   <v>      -0.44444444      -0.11111111       0.44444444 </v>
   <v>       0.44444444      -0.44444444       0.11111111 </v>
   <v>       0.44444444      -0.11111111       0.44444444 </v>
   <v>       0.11111111      -0.44444444       0.44444444 </v>
   <v>       0.22222222       0.22222222       0.22222222 </v>
   <v>      -0.22222222       0.22222222       0.22222222 </v>
   <v>      -0.22222222      -0.22222222       0.22222222 </v>
   <v>       0.22222222      -0.22222222       0.22222222 </v>
   <v>       0.33333333       0.22222222       0.22222222 </v>
   <v>       0.22222222       0.33333333       0.22222222 </v>
   <v>       0.22222222       0.22222222       0.33333333 </v>
   <v>      -0.22222222       0.33333333       0.22222222 </v>
   <v>      -0.33333333       0.22222222       0.22222222 </v>
   <v>      -0.22222222       0.22222222       0.33333333 </v>
   <v>      -0.33333333      -0.22222222       0.22222222 </v>
   <v>      -0.22222222      -0.33333333       0.22222222 </v>
   <v>      -0.22222222      -0.22222222       0.33333333 </v>
   <v>       0.22222222      -0.33333333       0.22222222 </v>
   <v>       0.33333333      -0.22222222       0.22222222 </v>
   <v>       0.22222222      -0.22222222       0.33333333 </v>
   <v>       0.44444444       0.22222222       0.22222222 </v>
   <v>       0.22222222       0.44444444       0.22222222 </v>
   <v>       0.22222222       0.22222222       0.44444444 </v>
   <v>      -0.22222222       0.44444444       0.22222222 </v>
   <v>      -0.44444444       0.22222222       0.22222222 </v>
   <v>      -0.22222222       0.22222222       0.44444444 </v>
   <v>      -0.44444444      -0.22222222       0.22222222 </v>
   <v>      -0.22222222      -0.44444444       0.22222222 </v>
   <v>      -0.22222222      -0.22222222       0.44444444 </v>
   <v>       0.22222222      -0.44444444       0.22222222 </v>
   <v>       0.44444444      -0.22222222       0.22222222 </v>
   <v>       0.22222222      -0.22222222       0.44444444 </v>
   <v>       0.33333333       0.33333333       0.22222222 </v>
   <v>       0.22222222       0.33333333       0.33333333 </v>
   <v>       0.33333333       0.22222222       0.33333333 </v>
   <v>      -0.33333333       0.33333333       0.22222222 </v>
   <v>      -0.33333333       0.22222222       0.33333333 </v>
   <v>      -0.22222222       0.33333333       0.33333333 </v>
   <v>      -0.33333333      -0.33333333       0.22222222 </v>
   <v>      -0.22222222      -0.33333333       0.33333333 </v>
   <v>      -0.33333333      -0.22222222       0.33333333 </v>
   <v>       0.33333333      -0.33333333       0.22222222 </v>
   <v>       0.33333333      -0.22222222       0.33333333 </v>
   <v>       0.22222222      -0.33333333       0.33333333 </v>
   <v>       0.44444444       0.33333333       0.22222222 </v>
   <v>       0.22222222       0.44444444       0.33333333 </v>
   <v>       0.33333333       0.22222222       0.44444444 </v>
   <v>      -0.33333333       0.44444444       0.22222222 </v>
   <v>      -0.44444444       0.22222222       0.33333333 </v>
   <v>      -0.22222222       0.33333333       0.44444444 </v>
   <v>      -0.44444444      -0.33333333       0.22222222 </v>
   <v>      -0.22222222      -0.44444444       0.33333333 </v>
   <v>      -0.33333333      -0.22222222       0.44444444 </v>
   <v>       0.33333333      -0.44444444       0.22222222 </v>
   <v>       0.44444444      -0.22222222       0.33333333 </v>
   <v>       0.22222222      -0.33333333       0.44444444 </v>
   <v>       0.22222222      -0.44444444      -0.33333333 </v>
   <v>       0.33333333      -0.22222222      -0.44444444 </v>
   <v>       0.44444444      -0.33333333      -0.22222222 </v>
   <v>       0.22222222       0.33333333      -0.44444444 </v>
   <v>       0.33333333       0.44444444      -0.22222222 </v>
   <v>       0.44444444       0.22222222      -0.33333333 </v>
   <v>      -0.33333333       0.22222222      -0.44444444 </v>
   <v>      -0.44444444       0.33333333      -0.22222222 </v>
   <v>      -0.22222222       0.44444444      -0.33333333 </v>
   <v>      -0.44444444      -0.22222222      -0.33333333 </v>
   <v>      -0.33333333      -0.44444444      -0.22222222 </v>
   <v>      -0.22222222      -0.33333333      -0.44444444 </v>
   <v>       0.44444444       0.44444444       0.22222222 </v>
   <v>       0.22222222       0.44444444       0.44444444 </v>
   <v>       0.44444444       0.22222222       0.44444444 </v>
   <v>      -0.44444444       0.44444444       0.22222222 </v>
   <v>      -0.44444444       0.22222222       0.44444444 </v>
   <v>      -0.22222222       0.44444444       0.44444444 </v>
   <v>      -0.44444444      -0.44444444       0.22222222 </v>
   <v>      -0.22222222      -0.44444444       0.44444444 </v>
   <v>      -0.44444444      -0.22222222       0.44444444 </v>
   <v>       0.44444444      -0.44444444       0.22222222 </v>
   <v>       0.44444444      -0.22222222       0.44444444 </v>
   <v>       0.22222222      -0.44444444       0.44444444 </v>
   <v>       0.33333333       0.33333333       0.33333333 </v>
   <v>      -0.33333333       0.33333333       0.33333333 </v>
   <v>      -0.33333333      -0.33333333       0.33333333 </v>
   <v>       0.33333333      -0.33333333       0.33333333 </v>
   <v>       0.44444444       0.33333333       0.33333333 </v>
   <v>       0.33333333       0.44444444       0.33333333 </v>
   <v>       0.33333333       0.33333333       0.44444444 </v>
   <v>      -0.33333333       0.44444444       0.33333333 </v>
   <v>      -0.44444444       0.33333333       0.33333333 </v>
   <v>      -0.33333333       0.33333333       0.44444444 </v>
   <v>      -0.44444444      -0.33333333       0.33333333 </v>
   <v>      -0.33333333      -0.44444444       0.33333333 </v>
   <v>      -0.33333333      -0.33333333       0.44444444 </v>
   <v>       0.33333333      -0.44444444       0.33333333 </v>
   <v>       0.44444444      -0.33333333       0.33333333 </v>
   <v>       0.33333333      -0.33333333       0.44444444 </v>
   <v>       0.44444444       0.44444444       0.33333333 </v>
   <v>       0.33333333       0.44444444       0.44444444 </v>
   <v>       0.44444444       0.33333333       0.44444444 </v>
   <v>      -0.44444444       0.44444444       0.33333333 </v>
   <v>      -0.44444444       0.33333333       0.44444444 </v>
   <v>      -0.33333333       0.44444444       0.44444444 </v>
   <v>      -0.44444444      -0.44444444       0.33333333 </v>
   <v>      -0.33333333      -0.44444444       0.44444444 </v>
   <v>      -0.44444444      -0.33333333       0.44444444 </v>
   <v>       0.44444444      -0.44444444       0.33333333 </v>
   <v>       0.44444444      -0.33333333       0.44444444 </v>
   <v>       0.33333333      -0.44444444       0.44444444 </v>
   <v>       0.44444444       0.44444444       0.44444444 </v>
   <v>      -0.44444444       0.44444444       0.44444444 </v>
   <v>      -0.44444444      -0.44444444       0.44444444 </v>
   <v>       0.44444444      -0.44444444       0.44444444 </v>
  </varray>
  <varray name="weights" >
   <v>       0.00137174 </v>
   <v>       0.00274348 </v>
   <v>       0.00274348 </v>
   <v>       0.00274348 </v>
   <v>       0.00274348 </v>
   <v>       0.00274348 </v>
   <v>       0.00274348 </v>
   <v>       0.00274348 </v>
   <v>       0.00274348 </v>
   <v>       0.00274348 </v>
   <v>       0.00274348 </v>
   <v>       0.00274348 </v>
   <v>       0.00274348 </v>
   <v>       0.00274348 </v>
   <v>       0.00274348 </v>
   <v>       0.00274348 </v>
   <v>       0.00274348 </v>
   <v>       0.00274348 </v>
   <v>       0.00274348 </v>
   <v>       0.00274348 </v>
   <v>       0.00274348 </v>
   <v>       0.00274348 </v>
   <v>       0.00274348 </v>
   <v>       0.00274348 </v>
   <v>       0.00274348 </v>
   <v>       0.00274348 </v>
   <v>       0.00274348 </v>
   <v>       0.00274348 </v>
   <v>       0.00274348 </v>
   <v>       0.00274348 </v>
   <v>       0.00274348 </v>
   <v>       0.00274348 </v>
   <v>       0.00274348 </v>
   <v>       0.00274348 </v>
   <v>       0.00274348 </v>
   <v>       0.00274348 </v>
   <v>       0.00274348 </v>
   <v>       0.00274348 </v>
   <v>       0.00274348 </v>
   <v>       0.00274348 </v>
   <v>       0.00274348 </v>
   <v>       0.00274348 </v>
   <v>       0.00274348 </v>
   <v>       0.00274348 </v>
   <v>       0.00274348 </v>
   <v>       0.00274348 </v>
   <v>       0.00274348 </v>
   <v>       0.00274348 </v>
   <v>       0.00274348 </v>
   <v>       0.00274348 </v>
   <v>       0.00274348 </v>
   <v>       0.00274348 </v>
   <v>       0.00274348 </v>
   <v>       0.00274348 </v>
   <v>       0.00274348 </v>
   <v>       0.00274348 </v>
   <v>       0.00274348 </v>
   <v>       0.00274348 </v>
   <v>       0.00274348 </v>
   <v>       0.00274348 </v>
   <v>       0.00274348 </v>
   <v>       0.00274348 </v>
   <v>       0.00274348 </v>
   <v>       0.00274348 </v>
   <v>       0.00274348 </v>
   <v>       0.00274348 </v>
   <v>       0.00274348 </v>
   <v>       0.00274348 </v>
   <v>       0.00274348 </v>
   <v>       0.00274348 </v>
   <v>       0.00274348 </v>
   <v>       0.00274348 </v>
   <v>       0.00274348 </v>
   <v>       0.00274348 </v>
   <v>       0.00274348 </v>
   <v>       0.00274348 </v>
   <v>       0.00274348 </v>
   <v>       0.00274348 </v>
   <v>       0.00274348 </v>
   <v>       0.00274348 </v>
   <v>       0.00274348 </v>
   <v>       0.00274348 </v>
   <v>       0.00274348 </v>
   <v>       0.00274348 </v>
   <v>       0.00274348 </v>
   <v>       0.00274348 </v>
   <v>       0.00274348 </v>
   <v>       0.00274348 </v>
   <v>       0.00274348 </v>
   <v>       0.00274348 </v>
   <v>       0.00274348 </v>
   <v>       0.00274348 </v>
   <v>       0.00274348 </v>
   <v>       0.00274348 </v>
   <v>       0.00274348 </v>
   <v>       0.00274348 </v>
   <v>       0.00274348 </v>
   <v>       0.00274348 </v>
   <v>       0.00274348 </v>
   <v>       0.00274348 </v>
   <v>       0.00274348 </v>
   <v>       0.00274348 </v>
   <v>       0.00274348 </v>
   <v>       0.00274348 </v>
   <v>       0.00274348 </v>
   <v>       0.00274348 </v>
   <v>       0.00274348 </v>
   <v>       0.00274348 </v>
   <v>       0.00274348 </v>
   <v>       0.00274348 </v>
   <v>       0.00274348 </v>
   <v>       0.00274348 </v>
   <v>       0.00274348 </v>
   <v>       0.00274348 </v>
   <v>       0.00274348 </v>
   <v>       0.00274348 </v>
   <v>       0.00274348 </v>
   <v>       0.00274348 </v>
   <v>       0.00274348 </v>
   <v>       0.00274348 </v>
   <v>       0.00274348 </v>
   <v>       0.00274348 </v>
   <v>       0.00274348 </v>
   <v>       0.00274348 </v>
   <v>       0.00274348 </v>
   <v>       0.00274348 </v>
   <v>       0.00274348 </v>
   <v>       0.00274348 </v>
   <v>       0.00274348 </v>
   <v>       0.00274348 </v>
   <v>       0.00274348 </v>
   <v>       0.00274348 </v>
   <v>       0.00274348 </v>
   <v>       0.00274348 </v>
   <v>       0.00274348 </v>
   <v>       0.00274348 </v>
   <v>       0.00274348 </v>
   <v>       0.00274348 </v>
   <v>       0.00274348 </v>
   <v>       0.00274348 </v>
   <v>       0.00274348 </v>
   <v>       0.00274348 </v>
   <v>       0.00274348 </v>
   <v>       0.00274348 </v>
   <v>       0.00274348 </v>
   <v>       0.00274348 </v>
   <v>       0.00274348 </v>
   <v>       0.00274348 </v>
   <v>       0.00274348 </v>
   <v>       0.00274348 </v>
   <v>       0.00274348 </v>
   <v>       0.00274348 </v>
   <v>       0.00274348 </v>
   <v>       0.00274348 </v>
   <v>       0.00274348 </v>
   <v>       0.00274348 </v>
   <v>       0.00274348 </v>
   <v>       0.00274348 </v>
   <v>       0.00274348 </v>
   <v>       0.00274348 </v>
   <v>       0.00274348 </v>
   <v>       0.00274348 </v>
   <v>       0.00274348 </v>
   <v>       0.00274348 </v>
   <v>       0.00274348 </v>
   <v>       0.00274348 </v>
   <v>       0.00274348 </v>
   <v>       0.00274348 </v>
   <v>       0.00274348 </v>
   <v>       0.00274348 </v>
   <v>       0.00274348 </v>
   <v>       0.00274348 </v>
   <v>       0.00274348 </v>
   <v>       0.00274348 </v>
   <v>       0.00274348 </v>
   <v>       0.00274348 </v>
   <v>       0.00274348 </v>
   <v>       0.00274348 </v>
   <v>       0.00274348 </v>
   <v>       0.00274348 </v>
   <v>       0.00274348 </v>
   <v>       0.00274348 </v>
   <v>       0.00274348 </v>
   <v>       0.00274348 </v>
   <v>       0.00274348 </v>
   <v>       0.00274348 </v>
   <v>       0.00274348 </v>
   <v>       0.00274348 </v>
   <v>       0.00274348 </v>
   <v>       0.00274348 </v>
   <v>       0.00274348 </v>
   <v>       0.00274348 </v>
   <v>       0.00274348 </v>
   <v>       0.00274348 </v>
   <v>       0.00274348 </v>
   <v>       0.00274348 </v>
   <v>       0.00274348 </v>
   <v>       0.00274348 </v>
   <v>       0.00274348 </v>
   <v>       0.00274348 </v>
   <v>       0.00274348 </v>
   <v>       0.00274348 </v>
   <v>       0.00274348 </v>
   <v>       0.00274348 </v>
   <v>       0.00274348 </v>
   <v>       0.00274348 </v>
   <v>       0.00274348 </v>
   <v>       0.00274348 </v>
   <v>       0.00274348 </v>
   <v>       0.00274348 </v>
   <v>       0.00274348 </v>
   <v>       0.00274348 </v>
   <v>       0.00274348 </v>
   <v>       0.00274348 </v>
   <v>       0.00274348 </v>
   <v>       0.00274348 </v>
   <v>       0.00274348 </v>
   <v>       0.00274348 </v>
   <v>       0.00274348 </v>
   <v>       0.00274348 </v>
   <v>       0.00274348 </v>
   <v>       0.00274348 </v>
   <v>       0.00274348 </v>
   <v>       0.00274348 </v>
   <v>       0.00274348 </v>
   <v>       0.00274348 </v>
   <v>       0.00274348 </v>
   <v>       0.00274348 </v>
   <v>       0.00274348 </v>
   <v>       0.00274348 </v>
   <v>       0.00274348 </v>
   <v>       0.00274348 </v>
   <v>       0.00274348 </v>
   <v>       0.00274348 </v>
   <v>       0.00274348 </v>
   <v>       0.00274348 </v>
   <v>       0.00274348 </v>
   <v>       0.00274348 </v>
   <v>       0.00274348 </v>
   <v>       0.00274348 </v>
   <v>       0.00274348 </v>
   <v>       0.00274348 </v>
   <v>       0.00274348 </v>
   <v>       0.00274348 </v>
   <v>       0.00274348 </v>
   <v>       0.00274348 </v>
   <v>       0.00274348 </v>
   <v>       0.00274348 </v>
   <v>       0.00274348 </v>
   <v>       0.00274348 </v>
   <v>       0.00274348 </v>
   <v>       0.00274348 </v>
   <v>       0.00274348 </v>
   <v>       0.00274348 </v>
   <v>       0.00274348 </v>
   <v>       0.00274348 </v>
   <v>       0.00274348 </v>
   <v>       0.00274348 </v>
   <v>       0.00274348 </v>
   <v>       0.00274348 </v>
   <v>       0.00274348 </v>
   <v>       0.00274348 </v>
   <v>       0.00274348 </v>
   <v>       0.00274348 </v>
   <v>       0.00274348 </v>
   <v>       0.00274348 </v>
   <v>       0.00274348 </v>
   <v>       0.00274348 </v>
   <v>       0.00274348 </v>
   <v>       0.00274348 </v>
   <v>       0.00274348 </v>
   <v>       0.00274348 </v>
   <v>       0.00274348 </v>
   <v>       0.00274348 </v>
   <v>       0.00274348 </v>
   <v>       0.00274348 </v>
   <v>       0.00274348 </v>
   <v>       0.00274348 </v>
   <v>       0.00274348 </v>
   <v>       0.00274348 </v>
   <v>       0.00274348 </v>
   <v>       0.00274348 </v>
   <v>       0.00274348 </v>
   <v>       0.00274348 </v>
   <v>       0.00274348 </v>
   <v>       0.00274348 </v>
   <v>       0.00274348 </v>
   <v>       0.00274348 </v>
   <v>       0.00274348 </v>
   <v>       0.00274348 </v>
   <v>       0.00274348 </v>
   <v>       0.00274348 </v>
   <v>       0.00274348 </v>
   <v>       0.00274348 </v>
   <v>       0.00274348 </v>
   <v>       0.00274348 </v>
   <v>       0.00274348 </v>
   <v>       0.00274348 </v>
   <v>       0.00274348 </v>
   <v>       0.00274348 </v>
   <v>       0.00274348 </v>
   <v>       0.00274348 </v>
   <v>       0.00274348 </v>
   <v>       0.00274348 </v>
   <v>       0.00274348 </v>
   <v>       0.00274348 </v>
   <v>       0.00274348 </v>
   <v>       0.00274348 </v>
   <v>       0.00274348 </v>
   <v>       0.00274348 </v>
   <v>       0.00274348 </v>
   <v>       0.00274348 </v>
   <v>       0.00274348 </v>
   <v>       0.00274348 </v>
   <v>       0.00274348 </v>
   <v>       0.00274348 </v>
   <v>       0.00274348 </v>
   <v>       0.00274348 </v>
   <v>       0.00274348 </v>
   <v>       0.00274348 </v>
   <v>       0.00274348 </v>
   <v>       0.00274348 </v>
   <v>       0.00274348 </v>
   <v>       0.00274348 </v>
   <v>       0.00274348 </v>
   <v>       0.00274348 </v>
   <v>       0.00274348 </v>
   <v>       0.00274348 </v>
   <v>       0.00274348 </v>
   <v>       0.00274348 </v>
   <v>       0.00274348 </v>
   <v>       0.00274348 </v>
   <v>       0.00274348 </v>
   <v>       0.00274348 </v>
   <v>       0.00274348 </v>
   <v>       0.00274348 </v>
   <v>       0.00274348 </v>
   <v>       0.00274348 </v>
   <v>       0.00274348 </v>
   <v>       0.00274348 </v>
   <v>       0.00274348 </v>
   <v>       0.00274348 </v>
   <v>       0.00274348 </v>
   <v>       0.00274348 </v>
   <v>       0.00274348 </v>
   <v>       0.00274348 </v>
   <v>       0.00274348 </v>
   <v>       0.00274348 </v>
   <v>       0.00274348 </v>
   <v>       0.00274348 </v>
   <v>       0.00274348 </v>
   <v>       0.00274348 </v>
   <v>       0.00274348 </v>
   <v>       0.00274348 </v>
   <v>       0.00274348 </v>
   <v>       0.00274348 </v>
   <v>       0.00274348 </v>
   <v>       0.00274348 </v>
   <v>       0.00274348 </v>
   <v>       0.00274348 </v>
   <v>       0.00274348 </v>
   <v>       0.00274348 </v>
   <v>       0.00274348 </v>
   <v>       0.00274348 </v>
   <v>       0.00274348 </v>
  </varray>
 </kpoints>
 <parameters>
  <separator name="general" >
   <i type="string" name="SYSTEM">al</i>
   <i type="logical" name="LCOMPAT"> F  </i>
  </separator>
  <separator name="electronic" >
   <i type="string" name="PREC">accura</i>
   <i name="ENMAX">    600.00000000</i>
   <i name="ENAUG">    291.05200000</i>
   <i name="EDIFF">      0.00000100</i>
   <i type="int" name="IALGO">    38</i>
   <i type="int" name="IWAVPR">    10</i>
   <i type="int" name="NBANDS">    72</i>
   <i type="int" name="NBANDSLOW">    -1</i>
   <i type="int" name="NBANDSHIGH">    -1</i>
   <i name="NELECT">     96.00000000</i>
   <i type="int" name="TURBO">     0</i>
   <i type="int" name="IRESTART">     0</i>
   <i type="int" name="NREBOOT">     0</i>
   <i type="int" name="NMIN">     0</i>
   <i name="EREF">      0.00000000</i>
   <separator name="electronic smearing" >
    <i type="int" name="ISMEAR">     0</i>
    <i name="SIGMA">      0.05000000</i>
    <i name="KSPACING">      0.50000000</i>
    <i type="logical" name="KGAMMA"> T  </i>
    <i type="logical" name="KBLOWUP"> T  </i>
   </separator>
   <separator name="electronic projectors" >
    <i type="logical" name="LREAL"> T  </i>
    <v name="ROPT">     -0.00025000</v>
    <i type="int" name="LMAXPAW">    -1</i>
    <i type="int" name="LMAXMIX">     2</i>
    <i type="logical" name="NLSPLINE"> F  </i>
   </separator>
   <separator name="electronic startup" >
    <i type="int" name="ISTART">     0</i>
    <i type="int" name="ICHARG">     2</i>
    <i type="int" name="INIWAV">     1</i>
   </separator>
   <separator name="electronic spin" >
    <i type="int" name="ISPIN">     1</i>
    <i type="logical" name="LNONCOLLINEAR"> F  </i>
    <v name="MAGMOM">      1.00000000      1.00000000      1.00000000      1.00000000      1.00000000      1.00000000      1.00000000      1.00000000      1.00000000      1.00000000      1.00000000      1.00000000      1.00000000      1.00000000      1.00000000      1.00000000      1.00000000      1.00000000      1.00000000      1.00000000
      1.00000000      1.00000000      1.00000000      1.00000000      1.00000000      1.00000000      1.00000000      1.00000000      1.00000000      1.00000000      1.00000000      1.00000000</v>
    <i name="NUPDOWN">     -1.00000000</i>
    <i type="logical" name="LSORBIT"> F  </i>
    <v name="SAXIS">      0.00000000      0.00000000      1.00000000</v>
    <i type="logical" name="LSPIRAL"> F  </i>
    <v name="QSPIRAL">      0.00000000      0.00000000      0.00000000</v>
    <i type="logical" name="LZEROZ"> F  </i>
   </separator>
   <separator name="electronic exchange-correlation" >
    <i type="logical" name="LASPH"> F  </i>
    <i type="logical" name="LMETAGGA"> F  </i>
   </separator>
   <separator name="electronic convergence" >
    <i type="int" name="NELM">   200</i>
    <i type="int" name="NELMDL">    -5</i>
    <i type="int" name="NELMIN">     2</i>
    <i name="ENINI">    600.00000000</i>
    <separator name="electronic convergence detail" >
     <i type="logical" name="LDIAG"> T  </i>
     <i type="logical" name="LSUBROT"> F  </i>
     <i name="WEIMIN">      0.00000000</i>
     <i name="EBREAK">      0.00000000</i>
     <i name="DEPER">      0.30000000</i>
     <i type="int" name="NRMM">     4</i>
     <i name="TIME">      0.40000000</i>
    </separator>
   </separator>
   <separator name="electronic mixer" >
    <i name="AMIX">      0.40000000</i>
    <i name="BMIX">      1.00000000</i>
    <i name="AMIN">      0.10000000</i>
    <i name="AMIX_MAG">      1.60000000</i>
    <i name="BMIX_MAG">      1.00000000</i>
    <separator name="electronic mixer details" >
     <i type="int" name="IMIX">     4</i>
     <i type="logical" name="MIXFIRST"> F  </i>
     <i type="int" name="MAXMIX">   -45</i>
     <i name="WC">    100.00000000</i>
     <i type="int" name="INIMIX">     1</i>
     <i type="int" name="MIXPRE">     1</i>
     <i type="int" name="MREMOVE">     5</i>
    </separator>
   </separator>
   <separator name="electronic dipolcorrection" >
    <i type="logical" name="LDIPOL"> F  </i>
    <i type="logical" name="LMONO"> F  </i>
    <i type="int" name="IDIPOL">     0</i>
    <i name="EPSILON">      1.00000000</i>
    <v name="DIPOL">   -100.00000000   -100.00000000   -100.00000000</v>
    <i name="EFIELD">      0.00000000</i>
   </separator>
  </separator>
  <separator name="grids" >
   <i type="int" name="NGX">    70</i>
   <i type="int" name="NGY">    70</i>
   <i type="int" name="NGZ">    70</i>
   <i type="int" name="NGXF">   140</i>
   <i type="int" name="NGYF">   140</i>
   <i type="int" name="NGZF">   140</i>
   <i type="logical" name="ADDGRID"> F  </i>
  </separator>
  <separator name="ionic" >
   <i type="int" name="NSW">     0</i>
   <i type="int" name="IBRION">    -1</i>
   <i type="int" name="MDALGO">     0</i>
   <i type="int" name="ISIF">     2</i>
   <i name="PSTRESS">      0.00000000</i>
   <i name="EDIFFG">      0.00001000</i>
   <i type="int" name="NFREE">     0</i>
   <i name="POTIM">      0.50000000</i>
   <i name="SMASS">     -3.00000000</i>
   <i name="SCALEE">      1.00000000</i>
  </separator>
  <separator name="ionic md" >
   <i name="TEBEG">      0.00010000</i>
   <i name="TEEND">      0.00010000</i>
   <i type="int" name="NBLOCK">     1</i>
   <i type="int" name="KBLOCK">     1</i>
   <i type="int" name="NPACO">   256</i>
   <i name="APACO">     16.00000000</i>
  </separator>
  <separator name="symmetry" >
   <i type="int" name="ISYM">     2</i>
   <i name="SYMPREC">      0.00001000</i>
  </separator>
  <separator name="dos" >
   <i type="int" name="LORBIT">     0</i>
   <v name="RWIGS">     -1.00000000</v>
   <i type="int" name="NEDOS">   301</i>
   <i name="EMIN">     10.00000000</i>
   <i name="EMAX">    -10.00000000</i>
   <i name="EFERMI">      0.00000000</i>
  </separator>
  <separator name="writing" >
   <i type="int" name="NWRITE">     2</i>
   <i type="logical" name="LWAVE"> F  </i>
   <i type="logical" name="LDOWNSAMPLE"> F  </i>
   <i type="logical" name="LCHARG"> T  </i>
   <i type="logical" name="LPARD"> F  </i>
   <i type="logical" name="LVTOT"> F  </i>
   <i type="logical" name="LVHAR"> F  </i>
   <i type="logical" name="LELF"> F  </i>
   <i type="logical" name="LOPTICS"> F  </i>
   <v name="STM">      0.00000000      0.00000000      0.00000000      0.00000000      0.00000000      0.00000000      0.00000000</v>
  </separator>
  <separator name="performance" >
   <i type="int" name="NPAR">     8</i>
   <i type="int" name="NSIM">     8</i>
   <i type="int" name="NBLK">    -1</i>
   <i type="logical" name="LPLANE"> T  </i>
   <i type="logical" name="LSCALAPACK"> T  </i>
   <i type="logical" name="LSCAAWARE"> F  </i>
   <i type="logical" name="LSCALU"> F  </i>
   <i type="logical" name="LASYNC"> F  </i>
   <i type="logical" name="LORBITALREAL"> F  </i>
  </separator>
  <separator name="miscellaneous" >
   <i type="int" name="IDIOT">     3</i>
   <i type="int" name="PHON_NSTRUCT">    -1</i>
   <i type="logical" name="LMUSIC"> F  </i>
   <v name="POMASS">     26.98100000</v>
   <v name="DARWINR">      0.00000000</v>
   <v name="DARWINV">      1.00000000</v>
   <i type="logical" name="LCORR"> T  </i>
  </separator>
  <i type="logical" name="GGA_COMPAT"> T  </i>
  <i type="logical" name="LBERRY"> F  </i>
  <i type="int" name="ICORELEVEL">     0</i>
  <i type="logical" name="LDAU"> F  </i>
  <i type="int" name="I_CONSTRAINED_M">     0</i>
  <separator name="electronic exchange-correlation" >
   <i type="string" name="GGA">PE</i>
   <i type="int" name="VOSKOWN">     0</i>
   <i type="logical" name="LHFCALC"> F  </i>
   <i type="string" name="PRECFOCK"></i>
   <i type="logical" name="LSYMGRAD"> F  </i>
   <i type="logical" name="LHFONE"> F  </i>
   <i type="logical" name="LRHFCALC"> F  </i>
   <i type="logical" name="LTHOMAS"> F  </i>
   <i type="logical" name="LMODELHF"> F  </i>
   <i type="logical" name="LFOCKACE"> F  </i>
   <i name="ENCUT4O">     -1.00000000</i>
   <i type="int" name="EXXOEP">     0</i>
   <i type="int" name="FOURORBIT">     0</i>
   <i name="AEXX">      0.00000000</i>
   <i name="HFALPHA">      0.00000000</i>
   <i name="MCALPHA">      0.00000000</i>
   <i name="ALDAX">      1.00000000</i>
   <i name="AGGAX">      1.00000000</i>
   <i name="ALDAC">      1.00000000</i>
   <i name="AGGAC">      1.00000000</i>
   <i type="int" name="NKREDX">     1</i>
   <i type="int" name="NKREDY">     1</i>
   <i type="int" name="NKREDZ">     1</i>
   <i type="logical" name="SHIFTRED"> F  </i>
   <i type="logical" name="ODDONLY"> F  </i>
   <i type="logical" name="EVENONLY"> F  </i>
   <i type="int" name="LMAXFOCK">     0</i>
   <i type="int" name="NMAXFOCKAE">     0</i>
   <i type="logical" name="LFOCKAEDFT"> F  </i>
   <i name="HFSCREEN">      0.00000000</i>
   <i name="HFSCREENC">      0.00000000</i>
   <i type="int" name="NBANDSGWLOW">     0</i>
  </separator>
  <separator name="vdW DFT" >
   <i type="logical" name="LUSE_VDW"> F  </i>
   <i name="Zab_VDW">     -0.84910000</i>
   <i name="PARAM1">      0.12340000</i>
   <i name="PARAM2">      1.00000000</i>
   <i name="PARAM3">      0.00000000</i>
  </separator>
  <separator name="model GW" >
   <i type="int" name="MODEL_GW">     0</i>
   <i name="MODEL_EPS0">      9.88389577</i>
   <i name="MODEL_ALPHA">      1.00000000</i>
  </separator>
  <separator name="linear response parameters" >
   <i type="logical" name="LEPSILON"> F  </i>
   <i type="logical" name="LRPA"> F  </i>
   <i type="logical" name="LNABLA"> F  </i>
   <i type="logical" name="LVEL"> F  </i>
   <i type="int" name="KINTER">     0</i>
   <i name="CSHIFT">      0.10000000</i>
   <i name="OMEGAMAX">     -1.00000000</i>
   <i name="DEG_THRESHOLD">      0.00200000</i>
   <i name="RTIME">     -0.10000000</i>
   <i name="WPLASMAI">      0.00000000</i>
   <v name="DFIELD">      0.00000000      0.00000000      0.00000000</v>
   <v name="WPLASMA">      0.00000000      0.00000000      0.00000000      0.00000000      0.00000000      0.00000000      0.00000000      0.00000000      0.00000000</v>
  </separator>
  <separator name="orbital magnetization" >
   <i type="logical" name="NUCIND"> F  </i>
   <v name="MAGPOS">      0.00000000      0.00000000      0.00000000</v>
   <i type="logical" name="LNICSALL"> T  </i>
   <i type="logical" name="ORBITALMAG"> F  </i>
   <i type="logical" name="LMAGBLOCH"> F  </i>
   <i type="logical" name="LCHIMAG"> F  </i>
   <i type="logical" name="LGAUGE"> T  </i>
   <i type="int" name="MAGATOM">     0</i>
   <v name="MAGDIPOL">      0.00000000      0.00000000      0.00000000</v>
   <v name="AVECCONST">      0.00000000      0.00000000      0.00000000</v>
  </separator>
  <separator name="response functions" >
   <i type="logical" name="LFINITE_TEMPERATURE"> F  </i>
   <i type="logical" name="LADDER"> F  </i>
   <i type="logical" name="LRPAFORCE"> F  </i>
   <i type="logical" name="LFXC"> F  </i>
   <i type="logical" name="LHARTREE"> T  </i>
   <i type="int" name="IBSE">     0</i>
   <v type="int" name="KPOINT">    -1     0     0     0</v>
   <i type="logical" name="LTCTC"> F  </i>
   <i type="logical" name="LTCTE"> F  </i>
   <i type="logical" name="LTETE"> F  </i>
   <i type="logical" name="LTRIPLET"> F  </i>
   <i type="logical" name="LFXCEPS"> F  </i>
   <i type="logical" name="LFXHEG"> F  </i>
   <i type="int" name="NATURALO">     2</i>
   <i type="logical" name="LHOLEGF"> F  </i>
   <i type="logical" name="L2ORDER"> F  </i>
   <i type="logical" name="LDMP1"> F  </i>
   <i type="logical" name="LMP2LT"> F  </i>
   <i type="logical" name="LSMP2LT"> F  </i>
   <i type="logical" name="LGWLF"> F  </i>
   <i name="ENCUTGW">     -2.00000000</i>
   <i name="ENCUTGWSOFT">     -2.00000000</i>
   <i name="ENCUTLF">     -1.00000000</i>
   <i type="logical" name="LESF_SPLINES"> F  </i>
   <i type="int" name="LMAXMP2">    -1</i>
   <i name="SCISSOR">      0.00000000</i>
   <i type="int" name="NOMEGA">     0</i>
   <i type="int" name="NOMEGAR">     0</i>
   <i type="int" name="NBANDSGW">    -1</i>
   <i type="int" name="NBANDSO">    -1</i>
   <i type="int" name="NBANDSV">    -1</i>
   <i type="int" name="NELM">   200</i>
   <i type="int" name="NELMHF">     1</i>
   <i type="int" name="DIM">     3</i>
   <i type="int" name="IESPILON">     4</i>
   <i type="int" name="ANTIRES">     0</i>
   <i name="OMEGAMAX">    -30.00000000</i>
   <i name="OMEGAMIN">    -30.00000000</i>
   <i name="OMEGATL">   -200.00000000</i>
   <i type="int" name="OMEGAGRID">     0</i>
   <i name="CSHIFT">     -0.10000000</i>
   <i type="logical" name="LSELFENERGY"> F  </i>
   <i type="logical" name="LSPECTRAL"> F  </i>
   <i type="logical" name="LSPECTRALGW"> F  </i>
   <i type="logical" name="LSINGLES"> F  </i>
   <i type="logical" name="LFERMIGW"> F  </i>
   <i type="logical" name="ODDONLYGW"> F  </i>
   <i type="logical" name="EVENONLYGW"> F  </i>
   <i type="int" name="NKREDLFX">     1</i>
   <i type="int" name="NKREDLFY">     1</i>
   <i type="int" name="NKREDLFZ">     1</i>
   <i type="int" name="MAXMEM">  2800</i>
   <i type="int" name="TELESCOPE">     0</i>
   <i type="int" name="NTAUPAR">    -1</i>
   <i type="int" name="NOMEGAPAR">    -1</i>
   <i name="DAMP_NEWTON">      0.80000001</i>
   <i name="LAMBDA">      1.00000000</i>
  </separator>
  <separator name="External order field" >
   <i name="OFIELD_KAPPA">      0.00000000</i>
   <v name="OFIELD_K">      0.00000000      0.00000000      0.00000000</v>
   <i name="OFIELD_Q6_NEAR">      0.00000000</i>
   <i name="OFIELD_Q6_FAR">      0.00000000</i>
   <i name="OFIELD_A">      0.00000000</i>
  </separator>
 </parameters>
 <atominfo>
  <atoms>      32 </atoms>
  <types>       1 </types>
  <array name="atoms" >
   <dimension dim="1">ion</dimension>
   <field type="string">element</field>
   <field type="int">atomtype</field>
   <set>
    <rc><c>Al</c><c>   1</c></rc>
    <rc><c>Al</c><c>   1</c></rc>
    <rc><c>Al</c><c>   1</c></rc>
    <rc><c>Al</c><c>   1</c></rc>
    <rc><c>Al</c><c>   1</c></rc>
    <rc><c>Al</c><c>   1</c></rc>
    <rc><c>Al</c><c>   1</c></rc>
    <rc><c>Al</c><c>   1</c></rc>
    <rc><c>Al</c><c>   1</c></rc>
    <rc><c>Al</c><c>   1</c></rc>
    <rc><c>Al</c><c>   1</c></rc>
    <rc><c>Al</c><c>   1</c></rc>
    <rc><c>Al</c><c>   1</c></rc>
    <rc><c>Al</c><c>   1</c></rc>
    <rc><c>Al</c><c>   1</c></rc>
    <rc><c>Al</c><c>   1</c></rc>
    <rc><c>Al</c><c>   1</c></rc>
    <rc><c>Al</c><c>   1</c></rc>
    <rc><c>Al</c><c>   1</c></rc>
    <rc><c>Al</c><c>   1</c></rc>
    <rc><c>Al</c><c>   1</c></rc>
    <rc><c>Al</c><c>   1</c></rc>
    <rc><c>Al</c><c>   1</c></rc>
    <rc><c>Al</c><c>   1</c></rc>
    <rc><c>Al</c><c>   1</c></rc>
    <rc><c>Al</c><c>   1</c></rc>
    <rc><c>Al</c><c>   1</c></rc>
    <rc><c>Al</c><c>   1</c></rc>
    <rc><c>Al</c><c>   1</c></rc>
    <rc><c>Al</c><c>   1</c></rc>
    <rc><c>Al</c><c>   1</c></rc>
    <rc><c>Al</c><c>   1</c></rc>
   </set>
  </array>
  <array name="atomtypes" >
   <dimension dim="1">type</dimension>
   <field type="int">atomspertype</field>
   <field type="string">element</field>
   <field>mass</field>
   <field>valence</field>
   <field type="string">pseudopotential</field>
   <set>
    <rc><c>  32</c><c>Al</c><c>     26.98100000</c><c>      3.00000000</c><c>  PAW_PBE Al 04Jan2001                  </c></rc>
   </set>
  </array>
 </atominfo>
 <structure name="initialpos" >
  <crystal>
   <varray name="basis" >
    <v>       8.07809510       0.00000000       0.00000000 </v>
    <v>       0.00000000       8.07809510       0.00000000 </v>
    <v>       0.00000000       0.00000000       8.07809510 </v>
   </varray>
   <i name="volume">    527.14110776 </i>
   <varray name="rec_basis" >
    <v>       0.12379156       0.00000000       0.00000000 </v>
    <v>       0.00000000       0.12379156       0.00000000 </v>
    <v>       0.00000000       0.00000000       0.12379156 </v>
   </varray>
  </crystal>
  <varray name="positions" >
   <v>       0.98474390       0.00011971       0.00581577 </v>
   <v>       0.98584850       0.25751115       0.26001129 </v>
   <v>       0.22989669       0.99155554       0.24716757 </v>
   <v>       0.23087154       0.24582821       0.99218062 </v>
   <v>       0.99396805       0.98780216       0.50810774 </v>
   <v>       0.00710779       0.23331967       0.74794170 </v>
   <v>       0.25672569       0.99739214       0.75304498 </v>
   <v>       0.25673719       0.23847562       0.49283753 </v>
   <v>       0.00877593       0.49286217       0.98477453 </v>
   <v>       0.99875792       0.73293781       0.24758586 </v>
   <v>       0.27332521       0.50195442       0.23168792 </v>
   <v>       0.23788858       0.75710503       0.98469948 </v>
   <v>       0.02273748       0.49729162       0.48097771 </v>
   <v>       0.99832450       0.74850446       0.75140734 </v>
   <v>       0.24578959       0.50670120       0.73331341 </v>
   <v>       0.25093926       0.75875038       0.50042228 </v>
   <v>       0.49383416       0.01143406       0.99846803 </v>
   <v>       0.52444323       0.23916036       0.24955515 </v>
   <v>       0.75745634       0.99044007       0.25593260 </v>
   <v>       0.75654522       0.26062228       0.00150020 </v>
   <v>       0.50459903       0.98160515       0.48596004 </v>
   <v>       0.48750815       0.26176657       0.73292108 </v>
   <v>       0.74566570       0.01184503       0.74385836 </v>
   <v>       0.75738907       0.25763957       0.52621651 </v>
   <v>       0.49722220       0.47961250       0.98335403 </v>
   <v>       0.48594522       0.75015719       0.24417228 </v>
   <v>       0.75442487       0.49624248       0.24573044 </v>
   <v>       0.74840520       0.73908499       0.01782591 </v>
   <v>       0.49420715       0.51372437       0.49390212 </v>
   <v>       0.51660917       0.76585703       0.75565492 </v>
   <v>       0.73268466       0.51769977       0.76502530 </v>
   <v>       0.75123886       0.74236937       0.48734926 </v>
  </varray>
 </structure>
 <calculation>
  <scstep>
   <time name="dav">   48.92   49.30</time>
   <time name="total">   48.99   49.36</time>
   <energy>
    <i name="alphaZ">     -6.52466918 </i>
    <i name="ewald">  -2347.66837951 </i>
    <i name="hartreedc">     -5.38916895 </i>
    <i name="XCdc">   -839.48086360 </i>
    <i name="pawpsdc">   2118.40502803 </i>
    <i name="pawaedc">  -1095.85986421 </i>
    <i name="eentropy">     -0.00785219 </i>
    <i name="bandstr">    600.93674264 </i>
    <i name="atom">   1713.23359074 </i>
    <i name="e_fr_energy">    137.64456377 </i>
    <i name="e_wo_entrp">    137.65241596 </i>
    <i name="e_0_energy">    137.64848986 </i>
   </energy>
  </scstep>
  <scstep>
   <time name="dav">   55.51   55.94</time>
   <time name="total">   55.52   55.95</time>
   <energy>
    <i name="e_fr_energy">   -106.43171786 </i>
    <i name="e_wo_entrp">   -106.41724818 </i>
    <i name="e_0_energy">   -106.42448302 </i>
   </energy>
  </scstep>
  <scstep>
   <time name="dav">   59.02   59.47</time>
   <time name="total">   59.03   59.48</time>
   <energy>
    <i name="e_fr_energy">   -119.32299961 </i>
    <i name="e_wo_entrp">   -119.30651408 </i>
    <i name="e_0_energy">   -119.31475685 </i>
   </energy>
  </scstep>
  <scstep>
   <time name="dav">   57.08   57.52</time>
   <time name="total">   57.09   57.53</time>
   <energy>
    <i name="e_fr_energy">   -119.56207914 </i>
    <i name="e_wo_entrp">   -119.54566735 </i>
    <i name="e_0_energy">   -119.55387325 </i>
   </energy>
  </scstep>
  <scstep>
   <time name="dav">   57.41   57.85</time>
   <time name="total">   60.41   60.88</time>
   <energy>
    <i name="e_fr_energy">   -119.56468605 </i>
    <i name="e_wo_entrp">   -119.54828036 </i>
    <i name="e_0_energy">   -119.55648320 </i>
   </energy>
  </scstep>
  <scstep>
   <time name="dav">   59.05   59.49</time>
   <time name="total">   62.15   62.61</time>
   <energy>
    <i name="e_fr_energy">   -118.98824413 </i>
    <i name="e_wo_entrp">   -118.97191623 </i>
    <i name="e_0_energy">   -118.98008018 </i>
   </energy>
  </scstep>
  <scstep>
   <time name="dav">   57.94   58.37</time>
   <time name="total">   61.03   61.48</time>
   <energy>
    <i name="e_fr_energy">   -118.69896697 </i>
    <i name="e_wo_entrp">   -118.68271261 </i>
    <i name="e_0_energy">   -118.69083979 </i>
   </energy>
  </scstep>
  <scstep>
   <time name="dav">   58.74   59.16</time>
   <time name="total">   61.83   62.29</time>
   <energy>
    <i name="e_fr_energy">   -118.68142988 </i>
    <i name="e_wo_entrp">   -118.66506836 </i>
    <i name="e_0_energy">   -118.67324912 </i>
   </energy>
  </scstep>
  <scstep>
   <time name="dav">   58.57   59.00</time>
   <time name="total">   61.66   62.11</time>
   <energy>
    <i name="e_fr_energy">   -118.68040393 </i>
    <i name="e_wo_entrp">   -118.66403287 </i>
    <i name="e_0_energy">   -118.67221840 </i>
   </energy>
  </scstep>
  <scstep>
   <time name="dav">   59.71   60.14</time>
   <time name="total">   62.79   63.25</time>
   <energy>
    <i name="e_fr_energy">   -118.68031619 </i>
    <i name="e_wo_entrp">   -118.66394226 </i>
    <i name="e_0_energy">   -118.67212922 </i>
   </energy>
  </scstep>
  <scstep>
   <time name="dav">   59.64   60.07</time>
   <time name="total">   62.74   63.19</time>
   <energy>
    <i name="e_fr_energy">   -118.68031587 </i>
    <i name="e_wo_entrp">   -118.66394127 </i>
    <i name="e_0_energy">   -118.67212857 </i>
   </energy>
  </scstep>
  <scstep>
   <time name="dav">   39.75   40.04</time>
   <time name="total">   39.83   40.12</time>
   <energy>
    <i name="alphaZ">     -6.52466918 </i>
    <i name="ewald">  -2347.66837951 </i>
    <i name="hartreedc">     -6.51556900 </i>
    <i name="XCdc">   -835.88866087 </i>
    <i name="pawpsdc">   2118.40502803 </i>
    <i name="pawaedc">  -1095.85986421 </i>
    <i name="eentropy">     -0.01637436 </i>
    <i name="bandstr">    342.15458263 </i>
    <i name="atom">   1713.23359074 </i>
    <i name="e_fr_energy">   -118.68031573 </i>
    <i name="e_wo_entrp">   -118.66394137 </i>
    <i name="e_0_energy">   -118.67212855 </i>
   </energy>
  </scstep>
  <structure>
   <crystal>
    <varray name="basis" >
     <v>       8.07809510       0.00000000       0.00000000 </v>
     <v>       0.00000000       8.07809510       0.00000000 </v>
     <v>       0.00000000       0.00000000       8.07809510 </v>
    </varray>
    <i name="volume">    527.14110776 </i>
    <varray name="rec_basis" >
     <v>       0.12379156       0.00000000       0.00000000 </v>
     <v>       0.00000000       0.12379156       0.00000000 </v>
     <v>       0.00000000       0.00000000       0.12379156 </v>
    </varray>
   </crystal>
   <varray name="positions" >
    <v>       0.98474390       0.00011971       0.00581577 </v>
    <v>       0.98584850       0.25751115       0.26001129 </v>
    <v>       0.22989669       0.99155554       0.24716757 </v>
    <v>       0.23087154       0.24582821       0.99218062 </v>
    <v>       0.99396805       0.98780216       0.50810774 </v>
    <v>       0.00710779       0.23331967       0.74794170 </v>
    <v>       0.25672569       0.99739214       0.75304498 </v>
    <v>       0.25673719       0.23847562       0.49283753 </v>
    <v>       0.00877593       0.49286217       0.98477453 </v>
    <v>       0.99875792       0.73293781       0.24758586 </v>
    <v>       0.27332521       0.50195442       0.23168792 </v>
    <v>       0.23788858       0.75710503       0.98469948 </v>
    <v>       0.02273748       0.49729162       0.48097771 </v>
    <v>       0.99832450       0.74850446       0.75140734 </v>
    <v>       0.24578959       0.50670120       0.73331341 </v>
    <v>       0.25093926       0.75875038       0.50042228 </v>
    <v>       0.49383416       0.01143406       0.99846803 </v>
    <v>       0.52444323       0.23916036       0.24955515 </v>
    <v>       0.75745634       0.99044007       0.25593260 </v>
    <v>       0.75654522       0.26062228       0.00150020 </v>
    <v>       0.50459903       0.98160515       0.48596004 </v>
    <v>       0.48750815       0.26176657       0.73292108 </v>
    <v>       0.74566570       0.01184503       0.74385836 </v>
    <v>       0.75738907       0.25763957       0.52621651 </v>
    <v>       0.49722220       0.47961250       0.98335403 </v>
    <v>       0.48594522       0.75015719       0.24417228 </v>
    <v>       0.75442487       0.49624248       0.24573044 </v>
    <v>       0.74840520       0.73908499       0.01782591 </v>
    <v>       0.49420715       0.51372437       0.49390212 </v>
    <v>       0.51660917       0.76585703       0.75565492 </v>
    <v>       0.73268466       0.51769977       0.76502530 </v>
    <v>       0.75123886       0.74236937       0.48734926 </v>
   </varray>
  </structure>
  <varray name="forces" >
   <v>       0.09556589      -0.16875215      -0.19604373 </v>
   <v>       0.47211768      -0.54765628      -0.26063513 </v>
   <v>       0.29601085       0.33248436      -0.08719744 </v>
   <v>       0.57431654      -0.06274368       0.43162121 </v>
   <v>       0.18539253       0.23852487      -0.26165067 </v>
   <v>      -0.06224890       0.50221592      -0.11767954 </v>
   <v>      -0.11054654       0.11131006      -0.32564713 </v>
   <v>      -0.11403187       0.07695114      -0.31880859 </v>
   <v>      -0.22720937       0.24557274       0.24276194 </v>
   <v>       0.35205264       0.27496710      -0.14019159 </v>
   <v>      -0.59333544      -0.44484709       0.12548117 </v>
   <v>       0.42199903      -0.29196665       0.35728036 </v>
   <v>      -0.40654301      -0.00566726       0.56497294 </v>
   <v>      -0.39861922       0.04396720      -0.18361634 </v>
   <v>       0.14092738      -0.09661921       0.24701933 </v>
   <v>      -0.10791452      -0.18460173       0.01855276 </v>
   <v>       0.20253517      -0.10567763       0.09475537 </v>
   <v>      -0.55864324       0.21412378       0.24842607 </v>
   <v>      -0.12830690       0.21409225      -0.10472145 </v>
   <v>      -0.08779833      -0.43847934      -0.32860508 </v>
   <v>      -0.08716140       0.62768068       0.28987194 </v>
   <v>       0.22877612      -0.41544035       0.20133022 </v>
   <v>      -0.08806207      -0.33742946       0.45184962 </v>
   <v>      -0.19176634       0.28550390      -0.65811686 </v>
   <v>      -0.36382096       0.49423689       0.50099912 </v>
   <v>       0.34224677       0.11893173      -0.40113113 </v>
   <v>      -0.35760370       0.01609271       0.28620393 </v>
   <v>      -0.12057308       0.45108695      -0.36251041 </v>
   <v>       0.28051855      -0.33945501       0.01704315 </v>
   <v>      -0.51437706      -0.22096989      -0.04061492 </v>
   <v>       0.81790584      -0.42972114      -0.73133773 </v>
   <v>       0.10819695      -0.15771543       0.44033861 </v>
  </varray>
  <varray name="stress" >
   <v>      12.23976342      -0.17167217       0.43964138 </v>
   <v>      -0.17167217      13.75121932      -0.19115232 </v>
   <v>       0.43964136      -0.19115234      13.56799180 </v>
  </varray>
  <energy>
   <i name="e_fr_energy">   -118.68031573 </i>
   <i name="e_wo_entrp">   -118.66394137 </i>
   <i name="e_0_energy">   -118.67212855 </i>
  </energy>
  <time name="totalsc">  763.66  769.39</time>
  <eigenvalues>
   <array>
    <dimension dim="1">band</dimension>
    <dimension dim="2">kpoint</dimension>
    <dimension dim="3">spin</dimension>
    <field>eigene</field>
    <field>occ</field>
    <set>
     <set comment="spin 1">
      <set comment="kpoint 1">
       <r>   -3.1586    1.0000 </r>
       <r>   -1.0403    1.0000 </r>
       <r>   -1.0292    1.0000 </r>
       <r>   -0.9579    1.0000 </r>
       <r>   -0.9030    1.0000 </r>
       <r>   -0.8067    1.0000 </r>
       <r>   -0.7333    1.0000 </r>
       <r>    1.0822    1.0000 </r>
       <r>    1.1057    1.0000 </r>
       <r>    1.1300    1.0000 </r>
       <r>    1.2097    1.0000 </r>
       <r>    1.2293    1.0000 </r>
       <r>    1.2771    1.0000 </r>
       <r>    1.3137    1.0000 </r>
       <r>    1.3611    1.0000 </r>
       <r>    1.4167    1.0000 </r>
       <r>    1.4336    1.0000 </r>
       <r>    1.5886    1.0000 </r>
       <r>    1.6211    1.0000 </r>
       <r>    3.3528    1.0000 </r>
       <r>    3.3809    1.0000 </r>
       <r>    3.3995    1.0000 </r>
       <r>    3.4129    1.0000 </r>
       <r>    3.5981    1.0000 </r>
       <r>    3.6032    1.0000 </r>
       <r>    3.6309    1.0000 </r>
       <r>    3.6574    1.0000 </r>
       <r>    5.0729    1.0000 </r>
       <r>    5.0784    1.0000 </r>
       <r>    5.1001    1.0000 </r>
       <r>    6.3207    1.0000 </r>
       <r>    6.3442    1.0000 </r>
       <r>    6.3642    1.0000 </r>
       <r>    6.9268    1.0000 </r>
       <r>    6.9519    1.0000 </r>
       <r>    6.9824    1.0000 </r>
       <r>    7.0168    1.0000 </r>
       <r>    7.0614    1.0000 </r>
       <r>    7.1337    1.0000 </r>
       <r>    7.1510    1.0000 </r>
       <r>    7.1984    1.0000 </r>
       <r>    7.2500    1.0000 </r>
       <r>    7.3538    1.0000 </r>
       <r>    7.3759    1.0000 </r>
       <r>    7.4887    1.0000 </r>
       <r>    7.9339    0.9834 </r>
       <r>    8.0537    0.1038 </r>
       <r>    8.0774    0.0267 </r>
       <r>    8.2065    0.0000 </r>
       <r>    8.2642    0.0000 </r>
       <r>    8.3857    0.0000 </r>
       <r>    8.9385    0.0000 </r>
       <r>    8.9737    0.0000 </r>
       <r>    8.9877    0.0000 </r>
       <r>    9.0295    0.0000 </r>
       <r>    9.0480    0.0000 </r>
       <r>    9.0557    0.0000 </r>
       <r>    9.1222    0.0000 </r>
       <r>    9.1406    0.0000 </r>
       <r>    9.1575    0.0000 </r>
       <r>    9.2053    0.0000 </r>
       <r>    9.2407    0.0000 </r>
       <r>    9.2648    0.0000 </r>
       <r>    9.2926    0.0000 </r>
       <r>    9.3303    0.0000 </r>
       <r>    9.3837    0.0000 </r>
       <r>    9.4270    0.0000 </r>
       <r>    9.4576    0.0000 </r>
       <r>    9.5096    0.0000 </r>
       <r>   10.5656    0.0000 </r>
       <r>   10.6112    0.0000 </r>
       <r>   10.6234    0.0000 </r>
      </set>
      <set comment="kpoint 2">
       <r>   -3.1308    1.0000 </r>
       <r>   -1.3969    1.0000 </r>
       <r>   -1.0114    1.0000 </r>
       <r>   -0.9393    1.0000 </r>
       <r>   -0.8059    1.0000 </r>
       <r>   -0.7840    1.0000 </r>
       <r>   -0.3738    1.0000 </r>
       <r>    0.7003    1.0000 </r>
       <r>    0.7787    1.0000 </r>
       <r>    0.8974    1.0000 </r>
       <r>    0.9188    1.0000 </r>
       <r>    1.2822    1.0000 </r>
       <r>    1.3142    1.0000 </r>
       <r>    1.3440    1.0000 </r>
       <r>    1.4116    1.0000 </r>
       <r>    1.7239    1.0000 </r>
       <r>    1.7906    1.0000 </r>
       <r>    1.9494    1.0000 </r>
       <r>    1.9710    1.0000 </r>
       <r>    2.9762    1.0000 </r>
       <r>    3.0319    1.0000 </r>
       <r>    3.0502    1.0000 </r>
       <r>    3.1024    1.0000 </r>
       <r>    3.9590    1.0000 </r>
       <r>    4.0096    1.0000 </r>
       <r>    4.0287    1.0000 </r>
       <r>    4.0850    1.0000 </r>
       <r>    4.6036    1.0000 </r>
       <r>    5.1028    1.0000 </r>
       <r>    5.1123    1.0000 </r>
       <r>    6.3500    1.0000 </r>
       <r>    6.3614    1.0000 </r>
       <r>    6.5055    1.0000 </r>
       <r>    6.5827    1.0000 </r>
       <r>    6.6377    1.0000 </r>
       <r>    6.7079    1.0000 </r>
       <r>    6.7924    1.0000 </r>
       <r>    6.8295    1.0000 </r>
       <r>    6.9430    1.0000 </r>
       <r>    7.1081    1.0000 </r>
       <r>    7.1443    1.0000 </r>
       <r>    7.2586    1.0000 </r>
       <r>    7.2750    1.0000 </r>
       <r>    7.6537    1.0000 </r>
       <r>    7.6791    1.0000 </r>
       <r>    7.9275    0.9895 </r>
       <r>    7.9779    0.8114 </r>
       <r>    8.2957    0.0000 </r>
       <r>    8.3201    0.0000 </r>
       <r>    8.4751    0.0000 </r>
       <r>    8.5150    0.0000 </r>
       <r>    8.6755    0.0000 </r>
       <r>    8.7298    0.0000 </r>
       <r>    8.7652    0.0000 </r>
       <r>    8.7981    0.0000 </r>
       <r>    8.8469    0.0000 </r>
       <r>    8.8814    0.0000 </r>
       <r>    8.9542    0.0000 </r>
       <r>    8.9839    0.0000 </r>
       <r>    9.2503    0.0000 </r>
       <r>    9.2895    0.0000 </r>
       <r>    9.3086    0.0000 </r>
       <r>    9.3382    0.0000 </r>
       <r>    9.3953    0.0000 </r>
       <r>    9.4139    0.0000 </r>
       <r>    9.6527    0.0000 </r>
       <r>    9.7376    0.0000 </r>
       <r>    9.8167    0.0000 </r>
       <r>    9.8562    0.0000 </r>
       <r>   10.2424    0.0000 </r>
       <r>   10.2517    0.0000 </r>
       <r>   10.3536    0.0000 </r>
      </set>
      <set comment="kpoint 3">
       <r>   -3.1308    1.0000 </r>
       <r>   -1.3981    1.0000 </r>
       <r>   -0.9905    1.0000 </r>
       <r>   -0.9246    1.0000 </r>
       <r>   -0.8805    1.0000 </r>
       <r>   -0.7469    1.0000 </r>
       <r>   -0.3702    1.0000 </r>
       <r>    0.7213    1.0000 </r>
       <r>    0.7895    1.0000 </r>
       <r>    0.8372    1.0000 </r>
       <r>    0.9269    1.0000 </r>
       <r>    1.2716    1.0000 </r>
       <r>    1.3269    1.0000 </r>
       <r>    1.3593    1.0000 </r>
       <r>    1.4313    1.0000 </r>
       <r>    1.7345    1.0000 </r>
       <r>    1.8042    1.0000 </r>
       <r>    1.8581    1.0000 </r>
       <r>    2.0210    1.0000 </r>
       <r>    2.9722    1.0000 </r>
       <r>    3.0336    1.0000 </r>
       <r>    3.0528    1.0000 </r>
       <r>    3.1019    1.0000 </r>
       <r>    3.9510    1.0000 </r>
       <r>    4.0133    1.0000 </r>
       <r>    4.0352    1.0000 </r>
       <r>    4.0831    1.0000 </r>
       <r>    4.5964    1.0000 </r>
       <r>    5.1013    1.0000 </r>
       <r>    5.1243    1.0000 </r>
       <r>    6.3430    1.0000 </r>
       <r>    6.3666    1.0000 </r>
       <r>    6.5307    1.0000 </r>
       <r>    6.5479    1.0000 </r>
       <r>    6.6375    1.0000 </r>
       <r>    6.6843    1.0000 </r>
       <r>    6.7659    1.0000 </r>
       <r>    6.8903    1.0000 </r>
       <r>    6.9379    1.0000 </r>
       <r>    7.1379    1.0000 </r>
       <r>    7.1529    1.0000 </r>
       <r>    7.1936    1.0000 </r>
       <r>    7.3176    1.0000 </r>
       <r>    7.6221    1.0000 </r>
       <r>    7.7078    1.0000 </r>
       <r>    7.9391    0.9761 </r>
       <r>    7.9511    0.9497 </r>
       <r>    8.2495    0.0000 </r>
       <r>    8.3858    0.0000 </r>
       <r>    8.4550    0.0000 </r>
       <r>    8.5450    0.0000 </r>
       <r>    8.6668    0.0000 </r>
       <r>    8.7232    0.0000 </r>
       <r>    8.7514    0.0000 </r>
       <r>    8.7833    0.0000 </r>
       <r>    8.8407    0.0000 </r>
       <r>    8.8691    0.0000 </r>
       <r>    8.9245    0.0000 </r>
       <r>    9.0391    0.0000 </r>
       <r>    9.2481    0.0000 </r>
       <r>    9.2963    0.0000 </r>
       <r>    9.3173    0.0000 </r>
       <r>    9.3497    0.0000 </r>
       <r>    9.3779    0.0000 </r>
       <r>    9.4335    0.0000 </r>
       <r>    9.7010    0.0000 </r>
       <r>    9.7310    0.0000 </r>
       <r>    9.7654    0.0000 </r>
       <r>    9.8817    0.0000 </r>
       <r>   10.1801    0.0000 </r>
       <r>   10.3056    0.0000 </r>
       <r>   10.3716    0.0000 </r>
      </set>
      <set comment="kpoint 4">
       <r>   -3.1308    1.0000 </r>
       <r>   -1.4080    1.0000 </r>
       <r>   -0.9442    1.0000 </r>
       <r>   -0.9244    1.0000 </r>
       <r>   -0.8650    1.0000 </r>
       <r>   -0.8080    1.0000 </r>
       <r>   -0.3616    1.0000 </r>
       <r>    0.7697    1.0000 </r>
       <r>    0.7784    1.0000 </r>
       <r>    0.8392    1.0000 </r>
       <r>    0.8820    1.0000 </r>
       <r>    1.2978    1.0000 </r>
       <r>    1.3211    1.0000 </r>
       <r>    1.3278    1.0000 </r>
       <r>    1.4036    1.0000 </r>
       <r>    1.8017    1.0000 </r>
       <r>    1.8168    1.0000 </r>
       <r>    1.8959    1.0000 </r>
       <r>    1.9480    1.0000 </r>
       <r>    2.9985    1.0000 </r>
       <r>    3.0272    1.0000 </r>
       <r>    3.0445    1.0000 </r>
       <r>    3.0857    1.0000 </r>
       <r>    3.9822    1.0000 </r>
       <r>    4.0075    1.0000 </r>
       <r>    4.0278    1.0000 </r>
       <r>    4.0694    1.0000 </r>
       <r>    4.6003    1.0000 </r>
       <r>    5.1050    1.0000 </r>
       <r>    5.1191    1.0000 </r>
       <r>    6.3160    1.0000 </r>
       <r>    6.3750    1.0000 </r>
       <r>    6.5341    1.0000 </r>
       <r>    6.6143    1.0000 </r>
       <r>    6.6399    1.0000 </r>
       <r>    6.6662    1.0000 </r>
       <r>    6.7683    1.0000 </r>
       <r>    6.8315    1.0000 </r>
       <r>    6.9387    1.0000 </r>
       <r>    7.1210    1.0000 </r>
       <r>    7.1786    1.0000 </r>
       <r>    7.2120    1.0000 </r>
       <r>    7.2889    1.0000 </r>
       <r>    7.6598    1.0000 </r>
       <r>    7.6926    1.0000 </r>
       <r>    7.9111    0.9972 </r>
       <r>    7.9566    0.9312 </r>
       <r>    8.3223    0.0000 </r>
       <r>    8.3793    0.0000 </r>
       <r>    8.4422    0.0000 </r>
       <r>    8.5058    0.0000 </r>
       <r>    8.6684    0.0000 </r>
       <r>    8.7107    0.0000 </r>
       <r>    8.7354    0.0000 </r>
       <r>    8.8160    0.0000 </r>
       <r>    8.8403    0.0000 </r>
       <r>    8.8715    0.0000 </r>
       <r>    8.9315    0.0000 </r>
       <r>    8.9908    0.0000 </r>
       <r>    9.2720    0.0000 </r>
       <r>    9.2890    0.0000 </r>
       <r>    9.3390    0.0000 </r>
       <r>    9.3538    0.0000 </r>
       <r>    9.4049    0.0000 </r>
       <r>    9.4170    0.0000 </r>
       <r>    9.7058    0.0000 </r>
       <r>    9.7367    0.0000 </r>
       <r>    9.7825    0.0000 </r>
       <r>    9.8239    0.0000 </r>
       <r>   10.2572    0.0000 </r>
       <r>   10.2737    0.0000 </r>
       <r>   10.3444    0.0000 </r>
      </set>
      <set comment="kpoint 5">
       <r>   -3.0473    1.0000 </r>
       <r>   -1.8021    1.0000 </r>
       <r>   -0.9296    1.0000 </r>
       <r>   -0.8587    1.0000 </r>
       <r>   -0.7208    1.0000 </r>
       <r>   -0.7045    1.0000 </r>
       <r>    0.1622    1.0000 </r>
       <r>    0.3141    1.0000 </r>
       <r>    0.3828    1.0000 </r>
       <r>    0.5215    1.0000 </r>
       <r>    0.5359    1.0000 </r>
       <r>    1.3614    1.0000 </r>
       <r>    1.3956    1.0000 </r>
       <r>    1.4283    1.0000 </r>
       <r>    1.4908    1.0000 </r>
       <r>    2.2606    1.0000 </r>
       <r>    2.3319    1.0000 </r>
       <r>    2.4679    1.0000 </r>
       <r>    2.4893    1.0000 </r>
       <r>    2.5906    1.0000 </r>
       <r>    2.6571    1.0000 </r>
       <r>    2.6770    1.0000 </r>
       <r>    2.7314    1.0000 </r>
       <r>    3.8114    1.0000 </r>
       <r>    4.5052    1.0000 </r>
       <r>    4.5548    1.0000 </r>
       <r>    4.5760    1.0000 </r>
       <r>    4.6333    1.0000 </r>
       <r>    5.1795    1.0000 </r>
       <r>    5.1882    1.0000 </r>
       <r>    5.7671    1.0000 </r>
       <r>    5.8469    1.0000 </r>
       <r>    5.9811    1.0000 </r>
       <r>    6.0217    1.0000 </r>
       <r>    6.3059    1.0000 </r>
       <r>    6.3458    1.0000 </r>
       <r>    6.4747    1.0000 </r>
       <r>    6.5366    1.0000 </r>
       <r>    7.1328    1.0000 </r>
       <r>    7.1974    1.0000 </r>
       <r>    7.3084    1.0000 </r>
       <r>    7.3442    1.0000 </r>
       <r>    7.6259    1.0000 </r>
       <r>    7.6513    1.0000 </r>
       <r>    7.8169    1.0000 </r>
       <r>    7.9560    0.9334 </r>
       <r>    8.0308    0.2701 </r>
       <r>    8.0713    0.0393 </r>
       <r>    8.1194    0.0009 </r>
       <r>    8.1782    0.0000 </r>
       <r>    8.2180    0.0000 </r>
       <r>    8.3437    0.0000 </r>
       <r>    8.4112    0.0000 </r>
       <r>    8.5302    0.0000 </r>
       <r>    8.5329    0.0000 </r>
       <r>    8.5610    0.0000 </r>
       <r>    8.6125    0.0000 </r>
       <r>    8.7280    0.0000 </r>
       <r>    8.7850    0.0000 </r>
       <r>    9.7031    0.0000 </r>
       <r>    9.7442    0.0000 </r>
       <r>    9.7836    0.0000 </r>
       <r>    9.8267    0.0000 </r>
       <r>    9.9119    0.0000 </r>
       <r>    9.9421    0.0000 </r>
       <r>   10.0529    0.0000 </r>
       <r>   10.0985    0.0000 </r>
       <r>   10.1838    0.0000 </r>
       <r>   10.2072    0.0000 </r>
       <r>   10.2479    0.0000 </r>
       <r>   10.3178    0.0000 </r>
       <r>   10.3912    0.0000 </r>
      </set>
      <set comment="kpoint 6">
       <r>   -3.0474    1.0000 </r>
       <r>   -1.8017    1.0000 </r>
       <r>   -0.9083    1.0000 </r>
       <r>   -0.8429    1.0000 </r>
[...]
       <r>    2.7300    1.0000 </r>
       <r>    2.8012    1.0000 </r>
       <r>    2.8475    1.0000 </r>
       <r>    2.8933    1.0000 </r>
       <r>    3.0317    1.0000 </r>
       <r>    3.1078    1.0000 </r>
       <r>    3.1371    1.0000 </r>
       <r>    3.2423    1.0000 </r>
       <r>    3.2687    1.0000 </r>
       <r>    3.2989    1.0000 </r>
       <r>    3.3508    1.0000 </r>
       <r>    3.4150    1.0000 </r>
       <r>    3.4926    1.0000 </r>
       <r>    3.5748    1.0000 </r>
       <r>    3.6648    1.0000 </r>
       <r>    3.7365    1.0000 </r>
       <r>    6.3392    1.0000 </r>
       <r>    6.4226    1.0000 </r>
       <r>    6.4606    1.0000 </r>
       <r>    6.5916    1.0000 </r>
       <r>    6.6700    1.0000 </r>
       <r>    6.7268    1.0000 </r>
       <r>    7.0050    1.0000 </r>
       <r>    7.0520    1.0000 </r>
       <r>    7.1129    1.0000 </r>
       <r>    7.1265    1.0000 </r>
       <r>    7.1642    1.0000 </r>
       <r>    7.2228    1.0000 </r>
       <r>    7.3048    1.0000 </r>
       <r>    7.3129    1.0000 </r>
       <r>    7.3784    1.0000 </r>
       <r>    7.4172    1.0000 </r>
       <r>    7.4576    1.0000 </r>
       <r>    7.5477    1.0000 </r>
       <r>    7.8076    1.0000 </r>
       <r>    7.8321    1.0000 </r>
       <r>    7.9241    0.9919 </r>
       <r>    8.0226    0.3517 </r>
       <r>    8.1123    0.0018 </r>
       <r>    8.1914    0.0000 </r>
       <r>   10.3576    0.0000 </r>
       <r>   10.7233    0.0000 </r>
       <r>   10.7891    0.0000 </r>
       <r>   10.8639    0.0000 </r>
       <r>   10.9210    0.0000 </r>
       <r>   10.9555    0.0000 </r>
       <r>   11.0053    0.0000 </r>
       <r>   11.0568    0.0000 </r>
       <r>   11.0713    0.0000 </r>
       <r>   11.1167    0.0000 </r>
       <r>   11.1584    0.0000 </r>
       <r>   11.1845    0.0000 </r>
       <r>   11.2505    0.0000 </r>
       <r>   11.3196    0.0000 </r>
       <r>   11.4037    0.0000 </r>
       <r>   11.4519    0.0000 </r>
      </set>
     </set>
    </set>
   </array>
  </eigenvalues>
  <separator name="orbital magnetization" >
   <v name="MAGDIPOLOUT">      0.00000000      0.00000000      0.00000000</v>
  </separator>
  <dos>
   <i name="efermi">      8.00912606 </i>
   <total>
    <array>
     <dimension dim="1">gridpoints</dimension>
     <dimension dim="2">spin</dimension>
     <field>energy</field>
     <field>total</field>
     <field>integrated</field>
     <set>
      <set comment="spin 1">
       <r>    -3.9052     0.0000     0.0000 </r>
       <r>    -3.8505     0.0000     0.0000 </r>
       <r>    -3.7957     0.0000     0.0000 </r>
       <r>    -3.7410     0.0000     0.0000 </r>
       <r>    -3.6862     0.0000     0.0000 </r>
       <r>    -3.6315     0.0000     0.0000 </r>
       <r>    -3.5767     0.0000     0.0000 </r>
       <r>    -3.5220     0.0000     0.0000 </r>
       <r>    -3.4672     0.0000     0.0000 </r>
       <r>    -3.4125     0.0000     0.0000 </r>
       <r>    -3.3577     0.0000     0.0000 </r>
       <r>    -3.3030     0.0000     0.0000 </r>
       <r>    -3.2482     0.0004     0.0000 </r>
       <r>    -3.1935     0.0225     0.0013 </r>
       <r>    -3.1387     0.2466     0.0148 </r>
       <r>    -3.0840     0.7286     0.0546 </r>
       <r>    -3.0292     1.1617     0.1183 </r>
       <r>    -2.9745     1.5300     0.2020 </r>
       <r>    -2.9197     1.5139     0.2849 </r>
       <r>    -2.8650     2.1289     0.4015 </r>
       <r>    -2.8102     2.0767     0.5152 </r>
       <r>    -2.7555     2.3060     0.6414 </r>
       <r>    -2.7007     2.1158     0.7573 </r>
       <r>    -2.6460     2.9738     0.9201 </r>
       <r>    -2.5912     3.0581     1.0875 </r>
       <r>    -2.5364     2.6651     1.2334 </r>
       <r>    -2.4817     2.2343     1.3558 </r>
       <r>    -2.4269     3.6065     1.5532 </r>
       <r>    -2.3722     3.6346     1.7522 </r>
       <r>    -2.3174     3.6195     1.9504 </r>
       <r>    -2.2627     2.7784     2.1025 </r>
       <r>    -2.2079     3.6820     2.3041 </r>
       <r>    -2.1532     3.9541     2.5206 </r>
       <r>    -2.0984     3.8122     2.7293 </r>
       <r>    -2.0437     4.1141     2.9546 </r>
       <r>    -1.9889     4.5465     3.2035 </r>
       <r>    -1.9342     4.1474     3.4306 </r>
       <r>    -1.8794     3.3224     3.6125 </r>
       <r>    -1.8247     3.2311     3.7894 </r>
       <r>    -1.7699     4.1835     4.0185 </r>
       <r>    -1.7152     5.5169     4.3205 </r>
       <r>    -1.6604     5.4274     4.6177 </r>
       <r>    -1.6057     4.3065     4.8535 </r>
       <r>    -1.5509     3.9618     5.0704 </r>
       <r>    -1.4962     4.6254     5.3236 </r>
       <r>    -1.4414     4.5447     5.5724 </r>
       <r>    -1.3867     4.8200     5.8363 </r>
       <r>    -1.3319     5.7867     6.1532 </r>
       <r>    -1.2772     5.6482     6.4624 </r>
       <r>    -1.2224     4.3810     6.7023 </r>
       <r>    -1.1677     4.1621     6.9302 </r>
       <r>    -1.1129     6.0517     7.2615 </r>
       <r>    -1.0582     6.5553     7.6204 </r>
       <r>    -1.0034     5.4148     7.9169 </r>
       <r>    -0.9487     4.4035     8.1580 </r>
       <r>    -0.8939     4.5052     8.4046 </r>
       <r>    -0.8392     5.6171     8.7122 </r>
       <r>    -0.7844     6.6503     9.0763 </r>
       <r>    -0.7297     6.8290     9.4502 </r>
       <r>    -0.6749     7.1562     9.8420 </r>
       <r>    -0.6202     5.5556    10.1462 </r>
       <r>    -0.5654     5.1915    10.4304 </r>
       <r>    -0.5106     4.4519    10.6742 </r>
       <r>    -0.4559     5.4851    10.9745 </r>
       <r>    -0.4011     7.8007    11.4016 </r>
       <r>    -0.3464     7.3631    11.8047 </r>
       <r>    -0.2916     6.3589    12.1529 </r>
       <r>    -0.2369     6.1701    12.4907 </r>
       <r>    -0.1821     6.6309    12.8538 </r>
       <r>    -0.1274     6.3894    13.2036 </r>
       <r>    -0.0726     6.2032    13.5432 </r>
       <r>    -0.0179     6.7717    13.9140 </r>
       <r>     0.0369     7.1374    14.3048 </r>
       <r>     0.0916     6.4916    14.6602 </r>
       <r>     0.1464     6.6860    15.0263 </r>
       <r>     0.2011     7.0119    15.4102 </r>
       <r>     0.2559     7.2827    15.8089 </r>
       <r>     0.3106     6.5494    16.1675 </r>
       <r>     0.3654     6.6162    16.5297 </r>
       <r>     0.4201     6.6501    16.8938 </r>
       <r>     0.4749     8.3497    17.3510 </r>
       <r>     0.5296     8.2099    17.8005 </r>
       <r>     0.5844     7.0315    18.1855 </r>
       <r>     0.6391     6.6024    18.5470 </r>
       <r>     0.6939     6.8810    18.9237 </r>
       <r>     0.7486     7.1525    19.3153 </r>
       <r>     0.8034     6.3710    19.6642 </r>
       <r>     0.8581     7.1988    20.0583 </r>
       <r>     0.9129     8.5332    20.5255 </r>
       <r>     0.9676     8.2740    20.9785 </r>
       <r>     1.0224     8.6085    21.4498 </r>
       <r>     1.0771     9.2291    21.9551 </r>
       <r>     1.1319     7.7846    22.3814 </r>
       <r>     1.1866     6.6183    22.7437 </r>
       <r>     1.2414     6.8700    23.1199 </r>
       <r>     1.2961     7.6888    23.5408 </r>
       <r>     1.3509     8.5706    24.0101 </r>
       <r>     1.4056     8.5490    24.4782 </r>
       <r>     1.4604     7.1612    24.8702 </r>
       <r>     1.5152     8.1427    25.3161 </r>
       <r>     1.5699    10.1091    25.8696 </r>
       <r>     1.6247     8.7046    26.3461 </r>
       <r>     1.6794     7.2592    26.7436 </r>
       <r>     1.7342     6.7052    27.1107 </r>
       <r>     1.7889     9.1200    27.6101 </r>
       <r>     1.8437    10.3971    28.1793 </r>
       <r>     1.8984     9.2834    28.6876 </r>
       <r>     1.9532     9.8660    29.2278 </r>
       <r>     2.0079     8.4507    29.6905 </r>
       <r>     2.0627     6.9337    30.0701 </r>
       <r>     2.1174     6.6644    30.4350 </r>
       <r>     2.1722     8.4199    30.8960 </r>
       <r>     2.2269     9.6742    31.4256 </r>
       <r>     2.2817     9.8723    31.9662 </r>
       <r>     2.3364     9.4772    32.4851 </r>
       <r>     2.3912     7.5305    32.8974 </r>
       <r>     2.4459     8.9482    33.3873 </r>
       <r>     2.5007    12.4298    34.0678 </r>
       <r>     2.5554    10.2020    34.6264 </r>
       <r>     2.6102     8.3663    35.0845 </r>
       <r>     2.6649     9.4310    35.6008 </r>
       <r>     2.7197     9.0077    36.0940 </r>
       <r>     2.7744     8.1966    36.5428 </r>
       <r>     2.8292     9.0495    37.0383 </r>
       <r>     2.8839     9.4300    37.5546 </r>
       <r>     2.9387     8.3493    38.0117 </r>
       <r>     2.9934     7.9984    38.4496 </r>
       <r>     3.0482    10.3552    39.0166 </r>
       <r>     3.1029    12.3758    39.6942 </r>
       <r>     3.1577    11.4101    40.3189 </r>
       <r>     3.2124    10.4334    40.8902 </r>
       <r>     3.2672    10.4431    41.4619 </r>
       <r>     3.3219     9.6298    41.9892 </r>
       <r>     3.3767     8.4714    42.4530 </r>
       <r>     3.4314     9.0652    42.9493 </r>
       <r>     3.4862     9.6471    43.4775 </r>
       <r>     3.5410    10.9398    44.0765 </r>
       <r>     3.5957    10.4548    44.6489 </r>
       <r>     3.6505    10.7495    45.2374 </r>
       <r>     3.7052    11.2430    45.8530 </r>
       <r>     3.7600     9.5829    46.3777 </r>
       <r>     3.8147     8.5302    46.8447 </r>
       <r>     3.8695     8.3848    47.3038 </r>
       <r>     3.9242    11.1846    47.9162 </r>
       <r>     3.9790    12.6165    48.6070 </r>
       <r>     4.0337    11.2064    49.2205 </r>
       <r>     4.0885    11.1154    49.8291 </r>
       <r>     4.1432    10.4737    50.4026 </r>
       <r>     4.1980    10.5117    50.9781 </r>
       <r>     4.2527    10.3714    51.5459 </r>
       <r>     4.3075    11.7298    52.1881 </r>
       <r>     4.3622    12.9843    52.8991 </r>
       <r>     4.4170    10.2328    53.4593 </r>
       <r>     4.4717     9.4616    53.9774 </r>
       <r>     4.5265     9.0961    54.4754 </r>
       <r>     4.5812     9.4612    54.9934 </r>
       <r>     4.6360    10.5819    55.5728 </r>
       <r>     4.6907    11.9049    56.2246 </r>
       <r>     4.7455    13.7134    56.9754 </r>
       <r>     4.8002    13.0240    57.6885 </r>
       <r>     4.8550    11.8750    58.3387 </r>
       <r>     4.9097    13.1756    59.0600 </r>
       <r>     4.9645    11.3516    59.6816 </r>
       <r>     5.0192    10.7382    60.2695 </r>
       <r>     5.0740    10.4051    60.8392 </r>
       <r>     5.1287    12.3363    61.5146 </r>
       <r>     5.1835    12.0836    62.1762 </r>
       <r>     5.2382    12.5645    62.8641 </r>
       <r>     5.2930    12.4632    63.5465 </r>
       <r>     5.3477    12.4026    64.2256 </r>
       <r>     5.4025    12.2901    64.8985 </r>
       <r>     5.4572    11.1431    65.5086 </r>
       <r>     5.5120    10.7825    66.0989 </r>
       <r>     5.5668    12.9059    66.8055 </r>
       <r>     5.6215    13.6241    67.5515 </r>
       <r>     5.6763    12.2699    68.2233 </r>
       <r>     5.7310    11.7530    68.8668 </r>
       <r>     5.7858    10.2135    69.4260 </r>
       <r>     5.8405     9.5274    69.9476 </r>
       <r>     5.8953    12.8111    70.6490 </r>
       <r>     5.9500    12.2021    71.3171 </r>
       <r>     6.0048     9.7542    71.8512 </r>
       <r>     6.0595    10.1857    72.4088 </r>
       <r>     6.1143    12.1646    73.0749 </r>
       <r>     6.1690    12.9872    73.7859 </r>
       <r>     6.2238    11.2070    74.3995 </r>
       <r>     6.2785    10.3705    74.9673 </r>
       <r>     6.3333    11.9044    75.6191 </r>
       <r>     6.3880    12.2928    76.2922 </r>
       <r>     6.4428    12.3917    76.9706 </r>
       <r>     6.4975    11.5944    77.6054 </r>
       <r>     6.5523    10.0112    78.1536 </r>
       <r>     6.6070    10.8541    78.7478 </r>
       <r>     6.6618    11.2679    79.3648 </r>
       <r>     6.7165    11.0832    79.9716 </r>
       <r>     6.7713    11.2580    80.5880 </r>
       <r>     6.8260    12.0837    81.2496 </r>
       <r>     6.8808    13.6247    81.9956 </r>
       <r>     6.9355    13.4041    82.7295 </r>
       <r>     6.9903    13.8332    83.4868 </r>
       <r>     7.0450    13.9688    84.2516 </r>
       <r>     7.0998    11.6848    84.8914 </r>
       <r>     7.1545    11.6934    85.5316 </r>
       <r>     7.2093    12.6315    86.2232 </r>
       <r>     7.2640    11.3380    86.8440 </r>
       <r>     7.3188    12.0550    87.5040 </r>
       <r>     7.3735    13.6494    88.2513 </r>
       <r>     7.4283    11.5389    88.8831 </r>
       <r>     7.4830    10.6726    89.4675 </r>
       <r>     7.5378    12.8325    90.1701 </r>
       <r>     7.5926    12.7853    90.8701 </r>
       <r>     7.6473    13.1223    91.5885 </r>
       <r>     7.7021    13.0988    92.3057 </r>
       <r>     7.7568    11.2796    92.9233 </r>
       <r>     7.8116     9.4154    93.4388 </r>
       <r>     7.8663    11.1009    94.0466 </r>
       <r>     7.9211    13.8385    94.8042 </r>
       <r>     7.9758    13.7078    95.5548 </r>
       <r>     8.0306    13.2023    96.2776 </r>
       <r>     8.0853    13.1543    96.9978 </r>
       <r>     8.1401    14.5610    97.7951 </r>
       <r>     8.1948    13.8660    98.5542 </r>
       <r>     8.2496    12.9068    99.2609 </r>
       <r>     8.3043    14.5220   100.0560 </r>
       <r>     8.3591    15.2138   100.8890 </r>
       <r>     8.4138    14.5852   101.6876 </r>
       <r>     8.4686    13.4235   102.4225 </r>
       <r>     8.5233    13.1282   103.1413 </r>
       <r>     8.5781    12.2062   103.8096 </r>
       <r>     8.6328     9.9659   104.3552 </r>
       <r>     8.6876    11.7420   104.9981 </r>
       <r>     8.7423    12.7516   105.6963 </r>
       <r>     8.7971    12.7443   106.3941 </r>
       <r>     8.8518    13.0969   107.1111 </r>
       <r>     8.9066    12.8934   107.8171 </r>
       <r>     8.9613    14.1381   108.5912 </r>
       <r>     9.0161    15.7462   109.4533 </r>
       <r>     9.0708    15.3190   110.2920 </r>
       <r>     9.1256    15.9438   111.1650 </r>
       <r>     9.1803    16.1753   112.0506 </r>
       <r>     9.2351    14.1238   112.8239 </r>
       <r>     9.2898    12.5456   113.5108 </r>
       <r>     9.3446    12.4970   114.1950 </r>
       <r>     9.3993    11.8971   114.8464 </r>
       <r>     9.4541    12.3779   115.5241 </r>
       <r>     9.5088    12.5444   116.2109 </r>
       <r>     9.5636    12.6407   116.9030 </r>
       <r>     9.6183    13.5814   117.6466 </r>
       <r>     9.6731    13.1111   118.3644 </r>
       <r>     9.7279    14.3873   119.1522 </r>
       <r>     9.7826    15.7491   120.0145 </r>
       <r>     9.8374    16.9733   120.9438 </r>
       <r>     9.8921    15.4762   121.7911 </r>
       <r>     9.9469    13.8675   122.5504 </r>
       <r>    10.0016    14.7722   123.3592 </r>
       <r>    10.0564    15.4050   124.2026 </r>
       <r>    10.1111    13.0455   124.9169 </r>
       <r>    10.1659    11.7096   125.5580 </r>
       <r>    10.2206    14.3769   126.3451 </r>
       <r>    10.2754    14.5482   127.1417 </r>
       <r>    10.3301    13.4466   127.8779 </r>
       <r>    10.3849    12.3954   128.5566 </r>
       <r>    10.4396    15.3013   129.3943 </r>
       <r>    10.4944    17.3862   130.3462 </r>
       <r>    10.5491    15.2480   131.1811 </r>
       <r>    10.6039    15.4341   132.0261 </r>
       <r>    10.6586    15.3395   132.8660 </r>
       <r>    10.7134    15.3950   133.7089 </r>
       <r>    10.7681    14.3514   134.4946 </r>
       <r>    10.8229    12.6383   135.1866 </r>
       <r>    10.8776    13.0549   135.9014 </r>
       <r>    10.9324    13.8274   136.6584 </r>
       <r>    10.9871    13.0634   137.3737 </r>
       <r>    11.0419    13.5580   138.1160 </r>
       <r>    11.0966    12.7378   138.8134 </r>
       <r>    11.1514    11.8579   139.4627 </r>
       <r>    11.2061    10.6294   140.0446 </r>
       <r>    11.2609    11.4364   140.6708 </r>
       <r>    11.3156    11.9167   141.3232 </r>
       <r>    11.3704    10.9304   141.9217 </r>
       <r>    11.4251    10.8529   142.5159 </r>
       <r>    11.4799     7.8228   142.9442 </r>
       <r>    11.5346     4.9044   143.2127 </r>
       <r>    11.5894     5.3190   143.5040 </r>
       <r>    11.6441     4.6459   143.7583 </r>
       <r>    11.6989     2.6474   143.9033 </r>
       <r>    11.7537     1.2658   143.9726 </r>
       <r>    11.8084     0.4501   143.9972 </r>
       <r>    11.8632     0.0496   143.9999 </r>
       <r>    11.9179     0.0010   144.0000 </r>
       <r>    11.9727     0.0000   144.0000 </r>
       <r>    12.0274     0.0000   144.0000 </r>
       <r>    12.0822     0.0000   144.0000 </r>
       <r>    12.1369     0.0000   144.0000 </r>
       <r>    12.1917     0.0000   144.0000 </r>
       <r>    12.2464     0.0000   144.0000 </r>
       <r>    12.3012     0.0000   144.0000 </r>
       <r>    12.3559     0.0000   144.0000 </r>
       <r>    12.4107     0.0000   144.0000 </r>
       <r>    12.4654     0.0000   144.0000 </r>
       <r>    12.5202     0.0000   144.0000 </r>
      </set>
     </set>
    </array>
   </total>
  </dos>
 </calculation>
 <structure name="finalpos" >
  <crystal>
   <varray name="basis" >
    <v>       8.07809510       0.00000000       0.00000000 </v>
    <v>       0.00000000       8.07809510       0.00000000 </v>
    <v>       0.00000000       0.00000000       8.07809510 </v>
   </varray>
   <i name="volume">    527.14110776 </i>
   <varray name="rec_basis" >
    <v>       0.12379156       0.00000000       0.00000000 </v>
    <v>       0.00000000       0.12379156       0.00000000 </v>
    <v>       0.00000000       0.00000000       0.12379156 </v>
   </varray>
  </crystal>
  <varray name="positions" >
   <v>       0.98474390       0.00011971       0.00581577 </v>
   <v>       0.98584850       0.25751115       0.26001129 </v>
   <v>       0.22989669       0.99155554       0.24716757 </v>
   <v>       0.23087154       0.24582821       0.99218062 </v>
   <v>       0.99396805       0.98780216       0.50810774 </v>
   <v>       0.00710779       0.23331967       0.74794170 </v>
   <v>       0.25672569       0.99739214       0.75304498 </v>
   <v>       0.25673719       0.23847562       0.49283753 </v>
   <v>       0.00877593       0.49286217       0.98477453 </v>
   <v>       0.99875792       0.73293781       0.24758586 </v>
   <v>       0.27332521       0.50195442       0.23168792 </v>
   <v>       0.23788858       0.75710503       0.98469948 </v>
   <v>       0.02273748       0.49729162       0.48097771 </v>
   <v>       0.99832450       0.74850446       0.75140734 </v>
   <v>       0.24578959       0.50670120       0.73331341 </v>
   <v>       0.25093926       0.75875038       0.50042228 </v>
   <v>       0.49383416       0.01143406       0.99846803 </v>
   <v>       0.52444323       0.23916036       0.24955515 </v>
   <v>       0.75745634       0.99044007       0.25593260 </v>
   <v>       0.75654522       0.26062228       0.00150020 </v>
   <v>       0.50459903       0.98160515       0.48596004 </v>
   <v>       0.48750815       0.26176657       0.73292108 </v>
   <v>       0.74566570       0.01184503       0.74385836 </v>
   <v>       0.75738907       0.25763957       0.52621651 </v>
   <v>       0.49722220       0.47961250       0.98335403 </v>
   <v>       0.48594522       0.75015719       0.24417228 </v>
   <v>       0.75442487       0.49624248       0.24573044 </v>
   <v>       0.74840520       0.73908499       0.01782591 </v>
   <v>       0.49420715       0.51372437       0.49390212 </v>
   <v>       0.51660917       0.76585703       0.75565492 </v>
   <v>       0.73268466       0.51769977       0.76502530 </v>
   <v>       0.75123886       0.74236937       0.48734926 </v>
  </varray>
 </structure>
</modeling>
