<?xml version="1.0" encoding="ISO-8859-1"?>
<modeling>
 <generator>
  <i name="program" type="string">vasp </i>
  <i name="version" type="string">6.2.0  </i>
  <i name="subversion" type="string">18Jan21 (build Mar 25 2021 14:28:09) complex                          parallel </i>
  <i name="platform" type="string">LinuxGNU </i>
  <i name="date" type="string">2021 12 20 </i>
  <i name="time" type="string">09:55:42 </i>
 </generator>
 <incar>
  <i type="string" name="SYSTEM">benzene</i>
  <i type="int" name="ISTART">     0</i>
  <i type="string" name="PREC">Accurate</i>
  <i type="string" name="ALGO">Normal</i>
  <i type="int" name="NELM">   200</i>
  <i type="int" name="IBRION">    -1</i>
  <i name="EDIFF">      0.00000100</i>
  <i type="int" name="NSW">     0</i>
  <i name="ENCUT">    600.00000000</i>
  <i type="logical" name="LREAL"> F  </i>
  <i type="int" name="ISMEAR">     0</i>
  <i name="SIGMA">      0.05000000</i>
  <i type="logical" name="LWAVE"> F  </i>
  <i type="logical" name="LCHARG"> T  </i>
  <i type="string" name="GGA">PE</i>
 </incar>
 <primitive_cell>
  <structure name="primitive_cell" >
   <crystal>
    <varray name="basis" >
     <v>      10.58354422       0.00000000       0.00000000 </v>
     <v>       0.00000000      10.58354422       0.00000000 </v>
     <v>       0.00000000       0.00000000      10.58354422 </v>
    </varray>
    <i name="volume">   1185.47769178 </i>
    <varray name="rec_basis" >
     <v>       0.09448631       0.00000000       0.00000000 </v>
     <v>       0.00000000       0.09448631       0.00000000 </v>
     <v>       0.00000000       0.00000000       0.09448631 </v>
    </varray>
   </crystal>
   <varray name="positions" >
    <v>       0.50446805       0.63324780       0.48987155 </v>
    <v>       0.38389145       0.56719430       0.50274910 </v>
    <v>       0.38857685       0.43362600       0.50338885 </v>
    <v>       0.50368685       0.36833450       0.48825205 </v>
    <v>       0.60782730       0.43289790       0.51056345 </v>
    <v>       0.61306885       0.56247720       0.48812260 </v>
    <v>       0.51311630       0.73610520       0.49054020 </v>
    <v>       0.29015895       0.61937165       0.52150215 </v>
    <v>       0.29153770       0.37577680       0.49954545 </v>
    <v>       0.50605145       0.26439990       0.48028865 </v>
    <v>       0.69860455       0.39028470       0.52821920 </v>
    <v>       0.69901175       0.61628420       0.49695670 </v>
   </varray>
  </structure>
  <varray name="primitive_index" >
   <v type="int" >        1 </v>
   <v type="int" >        2 </v>
   <v type="int" >        3 </v>
   <v type="int" >        4 </v>
   <v type="int" >        5 </v>
   <v type="int" >        6 </v>
   <v type="int" >        7 </v>
   <v type="int" >        8 </v>
   <v type="int" >        9 </v>
   <v type="int" >       10 </v>
   <v type="int" >       11 </v>
   <v type="int" >       12 </v>
  </varray>
 </primitive_cell>
 <kpoints>
  <generation param="Gamma">
   <v type="int" name="divisions">       1        1        1 </v>
   <v name="usershift">      0.00000000       0.00000000       0.00000000 </v>
   <v name="genvec1">      1.00000000       0.00000000       0.00000000 </v>
   <v name="genvec2">      0.00000000       1.00000000       0.00000000 </v>
   <v name="genvec3">      0.00000000       0.00000000       1.00000000 </v>
   <v name="shift">      0.00000000       0.00000000       0.00000000 </v>
  </generation>
  <varray name="kpointlist" >
   <v>       0.00000000       0.00000000       0.00000000 </v>
  </varray>
  <varray name="weights" >
   <v>       1.00000000 </v>
  </varray>
 </kpoints>
 <parameters>
  <separator name="general" >
   <i type="string" name="SYSTEM">benzene</i>
   <i type="logical" name="LCOMPAT"> F  </i>
  </separator>
  <separator name="electronic" >
   <i type="string" name="PREC">accura</i>
   <i name="ENMAX">    600.00000000</i>
   <i name="ENAUG">    644.87300000</i>
   <i name="EDIFF">      0.00000100</i>
   <i type="int" name="IALGO">    38</i>
   <i type="int" name="IWAVPR">    10</i>
   <i type="int" name="NBANDS">    24</i>
   <i type="int" name="NBANDSLOW">    -1</i>
   <i type="int" name="NBANDSHIGH">    -1</i>
   <i name="NELECT">     30.00000000</i>
   <i type="int" name="TURBO">     0</i>
   <i type="int" name="IRESTART">     0</i>
   <i type="int" name="NREBOOT">     0</i>
   <i type="int" name="NMIN">     0</i>
   <i name="EREF">      0.00000000</i>
   <separator name="electronic smearing" >
    <i type="int" name="ISMEAR">     0</i>
    <i name="SIGMA">      0.05000000</i>
    <i name="KSPACING">      0.50000000</i>
    <i type="logical" name="KGAMMA"> T  </i>
    <i type="logical" name="KBLOWUP"> T  </i>
   </separator>
   <separator name="electronic projectors" >
    <i type="logical" name="LREAL"> F  </i>
    <v name="ROPT">      0.00000000      0.00000000</v>
    <i type="int" name="LMAXPAW">  -100</i>
    <i type="int" name="LMAXMIX">     2</i>
    <i type="logical" name="NLSPLINE"> F  </i>
   </separator>
   <separator name="electronic startup" >
    <i type="int" name="ISTART">     0</i>
    <i type="int" name="ICHARG">     2</i>
    <i type="int" name="INIWAV">     1</i>
   </separator>
   <separator name="electronic spin" >
    <i type="int" name="ISPIN">     1</i>
    <i type="logical" name="LNONCOLLINEAR"> F  </i>
    <v name="MAGMOM">      1.00000000      1.00000000      1.00000000      1.00000000      1.00000000      1.00000000      1.00000000      1.00000000      1.00000000      1.00000000      1.00000000      1.00000000</v>
    <i name="NUPDOWN">     -1.00000000</i>
    <i type="logical" name="LSORBIT"> F  </i>
    <v name="SAXIS">      0.00000000      0.00000000      1.00000000</v>
    <i type="logical" name="LSPIRAL"> F  </i>
    <v name="QSPIRAL">      0.00000000      0.00000000      0.00000000</v>
    <i type="logical" name="LZEROZ"> F  </i>
   </separator>
   <separator name="electronic exchange-correlation" >
    <i type="logical" name="LASPH"> F  </i>
    <i type="logical" name="LMETAGGA"> F  </i>
   </separator>
   <separator name="electronic convergence" >
    <i type="int" name="NELM">   200</i>
    <i type="int" name="NELMDL">    -5</i>
    <i type="int" name="NELMIN">     2</i>
    <i name="ENINI">    600.00000000</i>
    <separator name="electronic convergence detail" >
     <i type="logical" name="LDIAG"> T  </i>
     <i type="logical" name="LSUBROT"> F  </i>
     <i name="WEIMIN">      0.00000000</i>
     <i name="EBREAK">      0.00000001</i>
     <i name="DEPER">      0.30000000</i>
     <i type="int" name="NRMM">     4</i>
     <i name="TIME">      0.40000000</i>
    </separator>
   </separator>
   <separator name="electronic mixer" >
    <i name="AMIX">      0.40000000</i>
    <i name="BMIX">      1.00000000</i>
    <i name="AMIN">      0.10000000</i>
    <i name="AMIX_MAG">      1.60000000</i>
    <i name="BMIX_MAG">      1.00000000</i>
    <separator name="electronic mixer details" >
     <i type="int" name="IMIX">     4</i>
     <i type="logical" name="MIXFIRST"> F  </i>
     <i type="int" name="MAXMIX">   -45</i>
     <i name="WC">    100.00000000</i>
     <i type="int" name="INIMIX">     1</i>
     <i type="int" name="MIXPRE">     1</i>
     <i type="int" name="MREMOVE">     5</i>
    </separator>
   </separator>
   <separator name="electronic dipolcorrection" >
    <i type="logical" name="LDIPOL"> F  </i>
    <i type="logical" name="LMONO"> F  </i>
    <i type="int" name="IDIPOL">     0</i>
    <i name="EPSILON">      1.00000000</i>
    <v name="DIPOL">   -100.00000000   -100.00000000   -100.00000000</v>
    <i name="EFIELD">      0.00000000</i>
   </separator>
  </separator>
  <separator name="grids" >
   <i type="int" name="NGX">    90</i>
   <i type="int" name="NGY">    90</i>
   <i type="int" name="NGZ">    90</i>
   <i type="int" name="NGXF">   180</i>
   <i type="int" name="NGYF">   180</i>
   <i type="int" name="NGZF">   180</i>
   <i type="logical" name="ADDGRID"> F  </i>
  </separator>
  <separator name="ionic" >
   <i type="int" name="NSW">     0</i>
   <i type="int" name="IBRION">    -1</i>
   <i type="int" name="MDALGO">     0</i>
   <i type="int" name="ISIF">     2</i>
   <i name="PSTRESS">      0.00000000</i>
   <i name="EDIFFG">      0.00001000</i>
   <i type="int" name="NFREE">     0</i>
   <i name="POTIM">      0.50000000</i>
   <i name="SMASS">     -3.00000000</i>
   <i name="SCALEE">      1.00000000</i>
  </separator>
  <separator name="ionic md" >
   <i name="TEBEG">      0.00010000</i>
   <i name="TEEND">      0.00010000</i>
   <i type="int" name="NBLOCK">     1</i>
   <i type="int" name="KBLOCK">     1</i>
   <i type="int" name="NPACO">   256</i>
   <i name="APACO">     16.00000000</i>
  </separator>
  <separator name="symmetry" >
   <i type="int" name="ISYM">     2</i>
   <i name="SYMPREC">      0.00001000</i>
  </separator>
  <separator name="dos" >
   <i type="int" name="LORBIT">     0</i>
   <v name="RWIGS">     -1.00000000     -1.00000000</v>
   <i type="int" name="NEDOS">   301</i>
   <i name="EMIN">     10.00000000</i>
   <i name="EMAX">    -10.00000000</i>
   <i name="EFERMI">      0.00000000</i>
  </separator>
  <separator name="writing" >
   <i type="int" name="NWRITE">     2</i>
   <i type="logical" name="LWAVE"> F  </i>
   <i type="logical" name="LDOWNSAMPLE"> F  </i>
   <i type="logical" name="LCHARG"> T  </i>
   <i type="logical" name="LPARD"> F  </i>
   <i type="logical" name="LVTOT"> F  </i>
   <i type="logical" name="LVHAR"> F  </i>
   <i type="logical" name="LELF"> F  </i>
   <i type="logical" name="LOPTICS"> F  </i>
   <v name="STM">      0.00000000      0.00000000      0.00000000      0.00000000      0.00000000      0.00000000      0.00000000</v>
  </separator>
  <separator name="performance" >
   <i type="int" name="NPAR">     4</i>
   <i type="int" name="NSIM">     4</i>
   <i type="int" name="NBLK">    -1</i>
   <i type="logical" name="LPLANE"> T  </i>
   <i type="logical" name="LSCALAPACK"> T  </i>
   <i type="logical" name="LSCAAWARE"> F  </i>
   <i type="logical" name="LSCALU"> F  </i>
   <i type="logical" name="LASYNC"> F  </i>
   <i type="logical" name="LORBITALREAL"> F  </i>
  </separator>
  <separator name="miscellaneous" >
   <i type="int" name="IDIOT">     3</i>
   <i type="int" name="PHON_NSTRUCT">    -1</i>
   <i type="logical" name="LMUSIC"> F  </i>
   <v name="POMASS">     12.01100000      1.00000000</v>
   <v name="DARWINR">      0.00000000      0.00000000</v>
   <v name="DARWINV">      1.00000000      1.00000000</v>
   <i type="logical" name="LCORR"> T  </i>
  </separator>
  <i type="logical" name="GGA_COMPAT"> T  </i>
  <i type="logical" name="LBERRY"> F  </i>
  <i type="int" name="ICORELEVEL">     0</i>
  <i type="logical" name="LDAU"> F  </i>
  <i type="int" name="I_CONSTRAINED_M">     0</i>
  <separator name="electronic exchange-correlation" >
   <i type="string" name="GGA">PE</i>
   <i type="int" name="VOSKOWN">     0</i>
   <i type="logical" name="LHFCALC"> F  </i>
   <i type="string" name="PRECFOCK"></i>
   <i type="logical" name="LSYMGRAD"> F  </i>
   <i type="logical" name="LHFONE"> F  </i>
   <i type="logical" name="LRHFCALC"> F  </i>
   <i type="logical" name="LTHOMAS"> F  </i>
   <i type="logical" name="LMODELHF"> F  </i>
   <i type="logical" name="LFOCKACE"> F  </i>
   <i name="ENCUT4O">     -1.00000000</i>
   <i type="int" name="EXXOEP">     0</i>
   <i type="int" name="FOURORBIT">     0</i>
   <i name="AEXX">      0.00000000</i>
   <i name="HFALPHA">      0.00000000</i>
   <i name="MCALPHA">      0.00000000</i>
   <i name="ALDAX">      1.00000000</i>
   <i name="AGGAX">      1.00000000</i>
   <i name="ALDAC">      1.00000000</i>
   <i name="AGGAC">      1.00000000</i>
   <i type="int" name="NKREDX">     1</i>
   <i type="int" name="NKREDY">     1</i>
   <i type="int" name="NKREDZ">     1</i>
   <i type="logical" name="SHIFTRED"> F  </i>
   <i type="logical" name="ODDONLY"> F  </i>
   <i type="logical" name="EVENONLY"> F  </i>
   <i type="int" name="LMAXFOCK">     0</i>
   <i type="int" name="NMAXFOCKAE">     0</i>
   <i type="logical" name="LFOCKAEDFT"> F  </i>
   <i name="HFSCREEN">      0.00000000</i>
   <i name="HFSCREENC">      0.00000000</i>
   <i type="int" name="NBANDSGWLOW">     0</i>
  </separator>
  <separator name="vdW DFT" >
   <i type="logical" name="LUSE_VDW"> F  </i>
   <i name="Zab_VDW">     -0.84910000</i>
   <i name="PARAM1">      0.12340000</i>
   <i name="PARAM2">      1.00000000</i>
   <i name="PARAM3">      0.00000000</i>
  </separator>
  <separator name="model GW" >
   <i type="int" name="MODEL_GW">     0</i>
   <i name="MODEL_EPS0">     59.27388459</i>
   <i name="MODEL_ALPHA">      1.00000000</i>
  </separator>
  <separator name="linear response parameters" >
   <i type="logical" name="LEPSILON"> F  </i>
   <i type="logical" name="LRPA"> F  </i>
   <i type="logical" name="LNABLA"> F  </i>
   <i type="logical" name="LVEL"> F  </i>
   <i type="int" name="KINTER">     0</i>
   <i name="CSHIFT">      0.10000000</i>
   <i name="OMEGAMAX">     -1.00000000</i>
   <i name="DEG_THRESHOLD">      0.00200000</i>
   <i name="RTIME">     -0.10000000</i>
   <i name="WPLASMAI">      0.00000000</i>
   <v name="DFIELD">      0.00000000      0.00000000      0.00000000</v>
   <v name="WPLASMA">      0.00000000      0.00000000      0.00000000      0.00000000      0.00000000      0.00000000      0.00000000      0.00000000      0.00000000</v>
  </separator>
  <separator name="orbital magnetization" >
   <i type="logical" name="NUCIND"> F  </i>
   <v name="MAGPOS">      0.00000000      0.00000000      0.00000000</v>
   <i type="logical" name="LNICSALL"> T  </i>
   <i type="logical" name="ORBITALMAG"> F  </i>
   <i type="logical" name="LMAGBLOCH"> F  </i>
   <i type="logical" name="LCHIMAG"> F  </i>
   <i type="logical" name="LGAUGE"> T  </i>
   <i type="int" name="MAGATOM">     0</i>
   <v name="MAGDIPOL">      0.00000000      0.00000000      0.00000000</v>
   <v name="AVECCONST">      0.00000000      0.00000000      0.00000000</v>
  </separator>
  <separator name="response functions" >
   <i type="logical" name="LFINITE_TEMPERATURE"> F  </i>
   <i type="logical" name="LADDER"> F  </i>
   <i type="logical" name="LRPAFORCE"> F  </i>
   <i type="logical" name="LFXC"> F  </i>
   <i type="logical" name="LHARTREE"> T  </i>
   <i type="int" name="IBSE">     0</i>
   <v type="int" name="KPOINT">    -1     0     0     0</v>
   <i type="logical" name="LTCTC"> F  </i>
   <i type="logical" name="LTCTE"> F  </i>
   <i type="logical" name="LTETE"> F  </i>
   <i type="logical" name="LTRIPLET"> F  </i>
   <i type="logical" name="LFXCEPS"> F  </i>
   <i type="logical" name="LFXHEG"> F  </i>
   <i type="int" name="NATURALO">     2</i>
   <i type="logical" name="LHOLEGF"> F  </i>
   <i type="logical" name="L2ORDER"> F  </i>
   <i type="logical" name="LDMP1"> F  </i>
   <i type="logical" name="LMP2LT"> F  </i>
   <i type="logical" name="LSMP2LT"> F  </i>
   <i type="logical" name="LGWLF"> F  </i>
   <i name="ENCUTGW">     -2.00000000</i>
   <i name="ENCUTGWSOFT">     -2.00000000</i>
   <i name="ENCUTLF">     -1.00000000</i>
   <i type="logical" name="LESF_SPLINES"> F  </i>
   <i type="int" name="LMAXMP2">    -1</i>
   <i name="SCISSOR">      0.00000000</i>
   <i type="int" name="NOMEGA">     0</i>
   <i type="int" name="NOMEGAR">     0</i>
   <i type="int" name="NBANDSGW">    -1</i>
   <i type="int" name="NBANDSO">    -1</i>
   <i type="int" name="NBANDSV">    -1</i>
   <i type="int" name="NELM">   200</i>
   <i type="int" name="NELMHF">     1</i>
   <i type="int" name="DIM">     3</i>
   <i type="int" name="IESPILON">     4</i>
   <i type="int" name="ANTIRES">     0</i>
   <i name="OMEGAMAX">    -30.00000000</i>
   <i name="OMEGAMIN">    -30.00000000</i>
   <i name="OMEGATL">   -200.00000000</i>
   <i type="int" name="OMEGAGRID">     0</i>
   <i name="CSHIFT">     -0.10000000</i>
   <i type="logical" name="LSELFENERGY"> F  </i>
   <i type="logical" name="LSPECTRAL"> F  </i>
   <i type="logical" name="LSPECTRALGW"> F  </i>
   <i type="logical" name="LSINGLES"> F  </i>
   <i type="logical" name="LFERMIGW"> F  </i>
   <i type="logical" name="ODDONLYGW"> F  </i>
   <i type="logical" name="EVENONLYGW"> F  </i>
   <i type="int" name="NKREDLFX">     1</i>
   <i type="int" name="NKREDLFY">     1</i>
   <i type="int" name="NKREDLFZ">     1</i>
   <i type="int" name="MAXMEM">  2800</i>
   <i type="int" name="TELESCOPE">     0</i>
   <i type="int" name="NTAUPAR">    -1</i>
   <i type="int" name="NOMEGAPAR">    -1</i>
   <i name="DAMP_NEWTON">      0.80000001</i>
   <i name="LAMBDA">      1.00000000</i>
  </separator>
  <separator name="External order field" >
   <i name="OFIELD_KAPPA">      0.00000000</i>
   <v name="OFIELD_K">      0.00000000      0.00000000      0.00000000</v>
   <i name="OFIELD_Q6_NEAR">      0.00000000</i>
   <i name="OFIELD_Q6_FAR">      0.00000000</i>
   <i name="OFIELD_A">      0.00000000</i>
  </separator>
 </parameters>
 <atominfo>
  <atoms>      12 </atoms>
  <types>       2 </types>
  <array name="atoms" >
   <dimension dim="1">ion</dimension>
   <field type="string">element</field>
   <field type="int">atomtype</field>
   <set>
    <rc><c>C </c><c>   1</c></rc>
    <rc><c>C </c><c>   1</c></rc>
    <rc><c>C </c><c>   1</c></rc>
    <rc><c>C </c><c>   1</c></rc>
    <rc><c>C </c><c>   1</c></rc>
    <rc><c>C </c><c>   1</c></rc>
    <rc><c>H </c><c>   2</c></rc>
    <rc><c>H </c><c>   2</c></rc>
    <rc><c>H </c><c>   2</c></rc>
    <rc><c>H </c><c>   2</c></rc>
    <rc><c>H </c><c>   2</c></rc>
    <rc><c>H </c><c>   2</c></rc>
   </set>
  </array>
  <array name="atomtypes" >
   <dimension dim="1">type</dimension>
   <field type="int">atomspertype</field>
   <field type="string">element</field>
   <field>mass</field>
   <field>valence</field>
   <field type="string">pseudopotential</field>
   <set>
    <rc><c>   6</c><c>C </c><c>     12.01100000</c><c>      4.00000000</c><c>  PAW_PBE C 08Apr2002                   </c></rc>
    <rc><c>   6</c><c>H </c><c>      1.00000000</c><c>      1.00000000</c><c>  PAW_PBE H 15Jun2001                   </c></rc>
   </set>
  </array>
 </atominfo>
 <structure name="initialpos" >
  <crystal>
   <varray name="basis" >
    <v>      10.58354422       0.00000000       0.00000000 </v>
    <v>       0.00000000      10.58354422       0.00000000 </v>
    <v>       0.00000000       0.00000000      10.58354422 </v>
   </varray>
   <i name="volume">   1185.47769178 </i>
   <varray name="rec_basis" >
    <v>       0.09448631       0.00000000       0.00000000 </v>
    <v>       0.00000000       0.09448631       0.00000000 </v>
    <v>       0.00000000       0.00000000       0.09448631 </v>
   </varray>
  </crystal>
  <varray name="positions" >
   <v>       0.50446805       0.63324780       0.48987155 </v>
   <v>       0.38389145       0.56719430       0.50274910 </v>
   <v>       0.38857685       0.43362600       0.50338885 </v>
   <v>       0.50368685       0.36833450       0.48825205 </v>
   <v>       0.60782730       0.43289790       0.51056345 </v>
   <v>       0.61306885       0.56247720       0.48812260 </v>
   <v>       0.51311630       0.73610520       0.49054020 </v>
   <v>       0.29015895       0.61937165       0.52150215 </v>
   <v>       0.29153770       0.37577680       0.49954545 </v>
   <v>       0.50605145       0.26439990       0.48028865 </v>
   <v>       0.69860455       0.39028470       0.52821920 </v>
   <v>       0.69901175       0.61628420       0.49695670 </v>
  </varray>
 </structure>
 <calculation>
  <scstep>
   <time name="dav">    0.22    0.23</time>
   <time name="total">    0.50    0.50</time>
   <energy>
    <i name="alphaZ">      3.48814018 </i>
    <i name="ewald">   1129.22332108 </i>
    <i name="hartreedc">  -1765.88846831 </i>
    <i name="XCdc">     91.19653374 </i>
    <i name="pawpsdc">    663.93644290 </i>
    <i name="pawaedc">   -667.40614445 </i>
    <i name="eentropy">     -0.00000000 </i>
    <i name="bandstr">   -197.40293383 </i>
    <i name="atom">    957.82965714 </i>
    <i name="e_fr_energy">    214.97654844 </i>
    <i name="e_wo_entrp">    214.97654844 </i>
    <i name="e_0_energy">    214.97654844 </i>
   </energy>
  </scstep>
  <scstep>
   <time name="dav">    0.27    0.27</time>
   <time name="total">    0.27    0.27</time>
   <energy>
    <i name="e_fr_energy">     -2.33432868 </i>
    <i name="e_wo_entrp">     -2.33432868 </i>
    <i name="e_0_energy">     -2.33432868 </i>
   </energy>
  </scstep>
  <scstep>
   <time name="dav">    0.24    0.25</time>
   <time name="total">    0.24    0.25</time>
   <energy>
    <i name="e_fr_energy">    -77.34155988 </i>
    <i name="e_wo_entrp">    -77.34155988 </i>
    <i name="e_0_energy">    -77.34155988 </i>
   </energy>
  </scstep>
  <scstep>
   <time name="dav">    0.20    0.20</time>
   <time name="total">    0.20    0.20</time>
   <energy>
    <i name="e_fr_energy">    -83.15451899 </i>
    <i name="e_wo_entrp">    -83.15451899 </i>
    <i name="e_0_energy">    -83.15451899 </i>
   </energy>
  </scstep>
  <scstep>
   <time name="dav">    0.26    0.27</time>
   <time name="total">    0.31    0.31</time>
   <energy>
    <i name="e_fr_energy">    -83.28223802 </i>
    <i name="e_wo_entrp">    -83.28223802 </i>
    <i name="e_0_energy">    -83.28223802 </i>
   </energy>
  </scstep>
  <scstep>
   <time name="dav">    0.22    0.22</time>
   <time name="total">    0.54    0.54</time>
   <energy>
    <i name="e_fr_energy">    -76.96268869 </i>
    <i name="e_wo_entrp">    -76.96268869 </i>
    <i name="e_0_energy">    -76.96268869 </i>
   </energy>
  </scstep>
  <scstep>
   <time name="dav">    0.26    0.27</time>
   <time name="total">    0.57    0.57</time>
   <energy>
    <i name="e_fr_energy">    -75.29203907 </i>
    <i name="e_wo_entrp">    -75.29203907 </i>
    <i name="e_0_energy">    -75.29203907 </i>
   </energy>
  </scstep>
  <scstep>
   <time name="dav">    0.24    0.24</time>
   <time name="total">    0.55    0.55</time>
   <energy>
    <i name="e_fr_energy">    -75.11390687 </i>
    <i name="e_wo_entrp">    -75.11390687 </i>
    <i name="e_0_energy">    -75.11390687 </i>
   </energy>
  </scstep>
  <scstep>
   <time name="dav">    0.27    0.27</time>
   <time name="total">    0.57    0.57</time>
   <energy>
    <i name="e_fr_energy">    -75.08432486 </i>
    <i name="e_wo_entrp">    -75.08432486 </i>
    <i name="e_0_energy">    -75.08432486 </i>
   </energy>
  </scstep>
  <scstep>
   <time name="dav">    0.24    0.24</time>
   <time name="total">    0.54    0.55</time>
   <energy>
    <i name="e_fr_energy">    -75.07911232 </i>
    <i name="e_wo_entrp">    -75.07911232 </i>
    <i name="e_0_energy">    -75.07911232 </i>
   </energy>
  </scstep>
  <scstep>
   <time name="dav">    0.22    0.22</time>
   <time name="total">    0.53    0.54</time>
   <energy>
    <i name="e_fr_energy">    -75.07510799 </i>
    <i name="e_wo_entrp">    -75.07510799 </i>
    <i name="e_0_energy">    -75.07510799 </i>
   </energy>
  </scstep>
  <scstep>
   <time name="dav">    0.22    0.22</time>
   <time name="total">    0.51    0.51</time>
   <energy>
    <i name="e_fr_energy">    -75.07584130 </i>
    <i name="e_wo_entrp">    -75.07584130 </i>
    <i name="e_0_energy">    -75.07584130 </i>
   </energy>
  </scstep>
  <scstep>
   <time name="dav">    0.24    0.24</time>
   <time name="total">    0.53    0.53</time>
   <energy>
    <i name="e_fr_energy">    -75.08543053 </i>
    <i name="e_wo_entrp">    -75.08543053 </i>
    <i name="e_0_energy">    -75.08543053 </i>
   </energy>
  </scstep>
  <scstep>
   <time name="dav">    0.24    0.24</time>
   <time name="total">    0.53    0.53</time>
   <energy>
    <i name="e_fr_energy">    -75.09271809 </i>
    <i name="e_wo_entrp">    -75.09271809 </i>
    <i name="e_0_energy">    -75.09271809 </i>
   </energy>
  </scstep>
  <scstep>
   <time name="dav">    0.22    0.22</time>
   <time name="total">    0.51    0.51</time>
   <energy>
    <i name="e_fr_energy">    -75.09578380 </i>
    <i name="e_wo_entrp">    -75.09578380 </i>
    <i name="e_0_energy">    -75.09578380 </i>
   </energy>
  </scstep>
  <scstep>
   <time name="dav">    0.22    0.22</time>
   <time name="total">    0.50    0.51</time>
   <energy>
    <i name="e_fr_energy">    -75.09724551 </i>
    <i name="e_wo_entrp">    -75.09724551 </i>
    <i name="e_0_energy">    -75.09724551 </i>
   </energy>
  </scstep>
  <scstep>
   <time name="dav">    0.23    0.23</time>
   <time name="total">    0.52    0.52</time>
   <energy>
    <i name="e_fr_energy">    -75.09791316 </i>
    <i name="e_wo_entrp">    -75.09791316 </i>
    <i name="e_0_energy">    -75.09791316 </i>
   </energy>
  </scstep>
  <scstep>
   <time name="dav">    0.20    0.20</time>
   <time name="total">    0.49    0.49</time>
   <energy>
    <i name="e_fr_energy">    -75.09802176 </i>
    <i name="e_wo_entrp">    -75.09802176 </i>
    <i name="e_0_energy">    -75.09802176 </i>
   </energy>
  </scstep>
  <scstep>
   <time name="dav">    0.20    0.20</time>
   <time name="total">    0.49    0.50</time>
   <energy>
    <i name="e_fr_energy">    -75.09805894 </i>
    <i name="e_wo_entrp">    -75.09805894 </i>
    <i name="e_0_energy">    -75.09805894 </i>
   </energy>
  </scstep>
  <scstep>
   <time name="dav">    0.24    0.25</time>
   <time name="total">    0.54    0.54</time>
   <energy>
    <i name="e_fr_energy">    -75.09806933 </i>
    <i name="e_wo_entrp">    -75.09806933 </i>
    <i name="e_0_energy">    -75.09806933 </i>
   </energy>
  </scstep>
  <scstep>
   <time name="dav">    0.20    0.20</time>
   <time name="total">    0.50    0.50</time>
   <energy>
    <i name="e_fr_energy">    -75.09807335 </i>
    <i name="e_wo_entrp">    -75.09807335 </i>
    <i name="e_0_energy">    -75.09807335 </i>
   </energy>
  </scstep>
  <scstep>
   <time name="dav">    0.22    0.22</time>
   <time name="total">    0.52    0.53</time>
   <energy>
    <i name="e_fr_energy">    -75.09807460 </i>
    <i name="e_wo_entrp">    -75.09807460 </i>
    <i name="e_0_energy">    -75.09807460 </i>
   </energy>
  </scstep>
  <scstep>
   <time name="dav">    0.20    0.20</time>
   <time name="total">    0.46    0.47</time>
   <energy>
    <i name="alphaZ">      3.48814018 </i>
    <i name="ewald">   1129.22332108 </i>
    <i name="hartreedc">  -1910.94653146 </i>
    <i name="XCdc">     97.93987433 </i>
    <i name="pawpsdc">   2490.69198276 </i>
    <i name="pawaedc">  -2494.93583771 </i>
    <i name="eentropy">     -0.00000000 </i>
    <i name="bandstr">   -348.38868133 </i>
    <i name="atom">    957.82965714 </i>
    <i name="e_fr_energy">    -75.09807501 </i>
    <i name="e_wo_entrp">    -75.09807501 </i>
    <i name="e_0_energy">    -75.09807501 </i>
   </energy>
  </scstep>
  <structure>
   <crystal>
    <varray name="basis" >
     <v>      10.58354422       0.00000000       0.00000000 </v>
     <v>       0.00000000      10.58354422       0.00000000 </v>
     <v>       0.00000000       0.00000000      10.58354422 </v>
    </varray>
    <i name="volume">   1185.47769178 </i>
    <varray name="rec_basis" >
     <v>       0.09448631       0.00000000       0.00000000 </v>
     <v>       0.00000000       0.09448631       0.00000000 </v>
     <v>       0.00000000       0.00000000       0.09448631 </v>
    </varray>
   </crystal>
   <varray name="positions" >
    <v>       0.50446805       0.63324780       0.48987155 </v>
    <v>       0.38389145       0.56719430       0.50274910 </v>
    <v>       0.38857685       0.43362600       0.50338885 </v>
    <v>       0.50368685       0.36833450       0.48825205 </v>
    <v>       0.60782730       0.43289790       0.51056345 </v>
    <v>       0.61306885       0.56247720       0.48812260 </v>
    <v>       0.51311630       0.73610520       0.49054020 </v>
    <v>       0.29015895       0.61937165       0.52150215 </v>
    <v>       0.29153770       0.37577680       0.49954545 </v>
    <v>       0.50605145       0.26439990       0.48028865 </v>
    <v>       0.69860455       0.39028470       0.52821920 </v>
    <v>       0.69901175       0.61628420       0.49695670 </v>
   </varray>
  </structure>
  <varray name="forces" >
   <v>      -2.44552776      -0.45138993       0.08725173 </v>
   <v>       0.41977198       0.62956477       0.48383223 </v>
   <v>      -2.75554957      -0.43087187      -1.35665129 </v>
   <v>      -3.25912217      -2.13891441       0.91039968 </v>
   <v>       3.91297353       1.61771593      -1.04203343 </v>
   <v>      -0.16061748       0.65771758       1.42752625 </v>
   <v>      -0.34543987      -0.03206947      -0.17594890 </v>
   <v>       1.55883092      -0.77678635      -0.46963945 </v>
   <v>       2.18273010       1.31546117       0.20275306 </v>
   <v>      -0.18234030       0.35416873       0.21831913 </v>
   <v>       0.38299869      -0.64993584      -0.13940854 </v>
   <v>       0.69129194      -0.09466032      -0.14640047 </v>
  </varray>
  <varray name="stress" >
   <v>       0.68004841      -0.61995845       2.09081575 </v>
   <v>      -0.61995845      -1.17216543      -0.03886842 </v>
   <v>       2.09081575      -0.03886842      -1.02269739 </v>
  </varray>
  <energy>
   <i name="e_fr_energy">    -75.09807501 </i>
   <i name="e_wo_entrp">    -75.09807501 </i>
   <i name="e_0_energy">    -75.09807501 </i>
  </energy>
  <time name="totalsc">   16.24   16.45</time>
  <eigenvalues>
   <array>
    <dimension dim="1">band</dimension>
    <dimension dim="2">kpoint</dimension>
    <dimension dim="3">spin</dimension>
    <field>eigene</field>
    <field>occ</field>
    <set>
     <set comment="spin 1">
      <set comment="kpoint 1">
       <r>  -20.9463    1.0000 </r>
       <r>  -18.1314    1.0000 </r>
       <r>  -17.8585    1.0000 </r>
       <r>  -14.3920    1.0000 </r>
       <r>  -14.1595    1.0000 </r>
       <r>  -12.4037    1.0000 </r>
       <r>  -10.6536    1.0000 </r>
       <r>  -10.4074    1.0000 </r>
       <r>   -9.8640    1.0000 </r>
       <r>   -9.5289    1.0000 </r>
       <r>   -8.7957    1.0000 </r>
       <r>   -7.7694    1.0000 </r>
       <r>   -7.6104    1.0000 </r>
       <r>   -5.9029    1.0000 </r>
       <r>   -5.7709    1.0000 </r>
       <r>   -1.0008    0.0000 </r>
       <r>   -0.8448    0.0000 </r>
       <r>   -0.4434    0.0000 </r>
       <r>    0.7017    0.0000 </r>
       <r>    0.7710    0.0000 </r>
       <r>    0.8276    0.0000 </r>
       <r>    0.8638    0.0000 </r>
       <r>    0.9755    0.0000 </r>
       <r>    1.4293    0.0000 </r>
      </set>
     </set>
    </set>
   </array>
  </eigenvalues>
  <separator name="orbital magnetization" >
   <v name="MAGDIPOLOUT">      0.00000000      0.00000000      0.00000000</v>
  </separator>
  <dos>
   <i name="efermi">     -5.48707397 </i>
   <total>
    <array>
     <dimension dim="1">gridpoints</dimension>
     <dimension dim="2">spin</dimension>
     <field>energy</field>
     <field>total</field>
     <field>integrated</field>
     <set>
      <set comment="spin 1">
       <r>   -22.0651     0.0000     0.0000 </r>
       <r>   -21.9831     0.0000     0.0000 </r>
       <r>   -21.9010     0.0000     0.0000 </r>
       <r>   -21.8190     0.0000     0.0000 </r>
       <r>   -21.7369     0.0000     0.0000 </r>
       <r>   -21.6549     0.0000     0.0000 </r>
       <r>   -21.5728     0.0000     0.0000 </r>
       <r>   -21.4908     0.0000     0.0000 </r>
       <r>   -21.4087     0.0000     0.0000 </r>
       <r>   -21.3267     0.0000     0.0000 </r>
       <r>   -21.2447     0.0000     0.0000 </r>
       <r>   -21.1626     0.0000     0.0000 </r>
       <r>   -21.0806     0.0018     0.0001 </r>
       <r>   -20.9985     1.7016     0.1398 </r>
       <r>   -20.9165    17.8135     1.6012 </r>
       <r>   -20.8344     4.8414     1.9984 </r>
       <r>   -20.7524     0.0189     2.0000 </r>
       <r>   -20.6704     0.0000     2.0000 </r>
       <r>   -20.5883     0.0000     2.0000 </r>
       <r>   -20.5063     0.0000     2.0000 </r>
       <r>   -20.4242     0.0000     2.0000 </r>
       <r>   -20.3422     0.0000     2.0000 </r>
       <r>   -20.2601     0.0000     2.0000 </r>
       <r>   -20.1781     0.0000     2.0000 </r>
       <r>   -20.0960     0.0000     2.0000 </r>
       <r>   -20.0140     0.0000     2.0000 </r>
       <r>   -19.9320     0.0000     2.0000 </r>
       <r>   -19.8499     0.0000     2.0000 </r>
       <r>   -19.7679     0.0000     2.0000 </r>
       <r>   -19.6858     0.0000     2.0000 </r>
       <r>   -19.6038     0.0000     2.0000 </r>
       <r>   -19.5217     0.0000     2.0000 </r>
       <r>   -19.4397     0.0000     2.0000 </r>
       <r>   -19.3576     0.0000     2.0000 </r>
       <r>   -19.2756     0.0000     2.0000 </r>
       <r>   -19.1936     0.0000     2.0000 </r>
       <r>   -19.1115     0.0000     2.0000 </r>
       <r>   -19.0295     0.0000     2.0000 </r>
       <r>   -18.9474     0.0000     2.0000 </r>
       <r>   -18.8654     0.0000     2.0000 </r>
       <r>   -18.7833     0.0000     2.0000 </r>
       <r>   -18.7013     0.0000     2.0000 </r>
       <r>   -18.6192     0.0000     2.0000 </r>
       <r>   -18.5372     0.0000     2.0000 </r>
       <r>   -18.4552     0.0000     2.0000 </r>
       <r>   -18.3731     0.0000     2.0000 </r>
       <r>   -18.2911     0.0001     2.0000 </r>
       <r>   -18.2090     0.3428     2.0281 </r>
       <r>   -18.1270    13.0591     3.0996 </r>
       <r>   -18.0449    10.7989     3.9855 </r>
       <r>   -17.9629     0.2145     4.0031 </r>
       <r>   -17.8809     6.3820     4.5267 </r>
       <r>   -17.7988    16.8417     5.9085 </r>
       <r>   -17.7168     1.1144     5.9999 </r>
       <r>   -17.6347     0.0007     6.0000 </r>
       <r>   -17.5527     0.0000     6.0000 </r>
       <r>   -17.4706     0.0000     6.0000 </r>
       <r>   -17.3886     0.0000     6.0000 </r>
       <r>   -17.3065     0.0000     6.0000 </r>
       <r>   -17.2245     0.0000     6.0000 </r>
       <r>   -17.1425     0.0000     6.0000 </r>
       <r>   -17.0604     0.0000     6.0000 </r>
       <r>   -16.9784     0.0000     6.0000 </r>
       <r>   -16.8963     0.0000     6.0000 </r>
       <r>   -16.8143     0.0000     6.0000 </r>
       <r>   -16.7322     0.0000     6.0000 </r>
       <r>   -16.6502     0.0000     6.0000 </r>
       <r>   -16.5681     0.0000     6.0000 </r>
       <r>   -16.4861     0.0000     6.0000 </r>
       <r>   -16.4041     0.0000     6.0000 </r>
       <r>   -16.3220     0.0000     6.0000 </r>
       <r>   -16.2400     0.0000     6.0000 </r>
       <r>   -16.1579     0.0000     6.0000 </r>
       <r>   -16.0759     0.0000     6.0000 </r>
       <r>   -15.9938     0.0000     6.0000 </r>
       <r>   -15.9118     0.0000     6.0000 </r>
       <r>   -15.8298     0.0000     6.0000 </r>
       <r>   -15.7477     0.0000     6.0000 </r>
       <r>   -15.6657     0.0000     6.0000 </r>
       <r>   -15.5836     0.0000     6.0000 </r>
       <r>   -15.5016     0.0000     6.0000 </r>
       <r>   -15.4195     0.0000     6.0000 </r>
       <r>   -15.3375     0.0000     6.0000 </r>
       <r>   -15.2554     0.0000     6.0000 </r>
       <r>   -15.1734     0.0000     6.0000 </r>
       <r>   -15.0914     0.0000     6.0000 </r>
       <r>   -15.0093     0.0000     6.0000 </r>
       <r>   -14.9273     0.0000     6.0000 </r>
       <r>   -14.8452     0.0000     6.0000 </r>
       <r>   -14.7632     0.0000     6.0000 </r>
       <r>   -14.6811     0.0000     6.0000 </r>
       <r>   -14.5991     0.0000     6.0000 </r>
       <r>   -14.5170     0.0049     6.0004 </r>
       <r>   -14.4350     2.7178     6.2234 </r>
       <r>   -14.3530    18.3631     7.7300 </r>
       <r>   -14.2709     3.3037     8.0010 </r>
       <r>   -14.1889     4.9451     8.4067 </r>
       <r>   -14.1068    17.7622     9.8640 </r>
       <r>   -14.0248     1.6558     9.9999 </r>
       <r>   -13.9427     0.0017    10.0000 </r>
       <r>   -13.8607     0.0000    10.0000 </r>
       <r>   -13.7787     0.0000    10.0000 </r>
       <r>   -13.6966     0.0000    10.0000 </r>
       <r>   -13.6146     0.0000    10.0000 </r>
       <r>   -13.5325     0.0000    10.0000 </r>
       <r>   -13.4505     0.0000    10.0000 </r>
       <r>   -13.3684     0.0000    10.0000 </r>
       <r>   -13.2864     0.0000    10.0000 </r>
       <r>   -13.2043     0.0000    10.0000 </r>
       <r>   -13.1223     0.0000    10.0000 </r>
       <r>   -13.0403     0.0000    10.0000 </r>
       <r>   -12.9582     0.0000    10.0000 </r>
       <r>   -12.8762     0.0000    10.0000 </r>
       <r>   -12.7941     0.0000    10.0000 </r>
       <r>   -12.7121     0.0000    10.0000 </r>
       <r>   -12.6300     0.0000    10.0000 </r>
       <r>   -12.5480     0.0005    10.0000 </r>
       <r>   -12.4659     0.9521    10.0782 </r>
       <r>   -12.3839    16.4027    11.4239 </r>
       <r>   -12.3019     6.9732    11.9960 </r>
       <r>   -12.2198     0.0485    12.0000 </r>
       <r>   -12.1378     0.0000    12.0000 </r>
       <r>   -12.0557     0.0000    12.0000 </r>
       <r>   -11.9737     0.0000    12.0000 </r>
       <r>   -11.8916     0.0000    12.0000 </r>
       <r>   -11.8096     0.0000    12.0000 </r>
       <r>   -11.7275     0.0000    12.0000 </r>
       <r>   -11.6455     0.0000    12.0000 </r>
       <r>   -11.5635     0.0000    12.0000 </r>
       <r>   -11.4814     0.0000    12.0000 </r>
       <r>   -11.3994     0.0000    12.0000 </r>
       <r>   -11.3173     0.0000    12.0000 </r>
       <r>   -11.2353     0.0000    12.0000 </r>
       <r>   -11.1532     0.0000    12.0000 </r>
       <r>   -11.0712     0.0000    12.0000 </r>
       <r>   -10.9892     0.0000    12.0000 </r>
       <r>   -10.9071     0.0000    12.0000 </r>
       <r>   -10.8251     0.0000    12.0000 </r>
       <r>   -10.7430     0.1389    12.0114 </r>
       <r>   -10.6610    10.0256    12.8339 </r>
       <r>   -10.5789    13.7887    13.9652 </r>
       <r>   -10.4969     0.5620    14.0113 </r>
       <r>   -10.4148    10.0076    14.8324 </r>
       <r>   -10.3328    13.8055    15.9650 </r>
       <r>   -10.2508     0.4259    16.0000 </r>
       <r>   -10.1687     0.0001    16.0000 </r>
       <r>   -10.0867     0.0000    16.0000 </r>
       <r>   -10.0046     0.0008    16.0001 </r>
       <r>    -9.9226     1.1853    16.0973 </r>
       <r>    -9.8405    17.0039    17.4924 </r>
       <r>    -9.7585     6.1522    17.9971 </r>
       <r>    -9.6764     0.0351    18.0000 </r>
       <r>    -9.5944     0.7768    18.0638 </r>
       <r>    -9.5124    15.7908    19.3593 </r>
       <r>    -9.4303     7.7443    19.9947 </r>
       <r>    -9.3483     0.0648    20.0000 </r>
       <r>    -9.2662     0.0000    20.0000 </r>
       <r>    -9.1842     0.0000    20.0000 </r>
       <r>    -9.1021     0.0000    20.0000 </r>
       <r>    -9.0201     0.0000    20.0000 </r>
       <r>    -8.9381     0.0007    20.0001 </r>
       <r>    -8.8560     1.0695    20.0878 </r>
       <r>    -8.7740    16.7304    21.4604 </r>
       <r>    -8.6919     6.5358    21.9967 </r>
       <r>    -8.6099     0.0408    22.0000 </r>
       <r>    -8.5278     0.0000    22.0000 </r>
       <r>    -8.4458     0.0000    22.0000 </r>
       <r>    -8.3637     0.0000    22.0000 </r>
       <r>    -8.2817     0.0000    22.0000 </r>
       <r>    -8.1997     0.0000    22.0000 </r>
       <r>    -8.1176     0.0000    22.0000 </r>
       <r>    -8.0356     0.0000    22.0000 </r>
       <r>    -7.9535     0.0000    22.0000 </r>
       <r>    -7.8715     0.0473    22.0039 </r>
       <r>    -7.7894     6.9073    22.5706 </r>
       <r>    -7.7074    16.5270    23.9265 </r>
       <r>    -7.6253     9.0821    24.6717 </r>
       <r>    -7.5433    15.4854    25.9421 </r>
       <r>    -7.4613     0.7050    26.0000 </r>
       <r>    -7.3792     0.0003    26.0000 </r>
       <r>    -7.2972     0.0000    26.0000 </r>
       <r>    -7.2151     0.0000    26.0000 </r>
       <r>    -7.1331     0.0000    26.0000 </r>
       <r>    -7.0510     0.0000    26.0000 </r>
       <r>    -6.9690     0.0000    26.0000 </r>
       <r>    -6.8870     0.0000    26.0000 </r>
       <r>    -6.8049     0.0000    26.0000 </r>
       <r>    -6.7229     0.0000    26.0000 </r>
       <r>    -6.6408     0.0000    26.0000 </r>
       <r>    -6.5588     0.0000    26.0000 </r>
       <r>    -6.4767     0.0000    26.0000 </r>
       <r>    -6.3947     0.0000    26.0000 </r>
       <r>    -6.3126     0.0000    26.0000 </r>
       <r>    -6.2306     0.0000    26.0000 </r>
       <r>    -6.1486     0.0000    26.0000 </r>
       <r>    -6.0665     0.0000    26.0000 </r>
       <r>    -5.9845     0.2568    26.0211 </r>
       <r>    -5.9024    12.0692    27.0113 </r>
       <r>    -5.8204    13.7856    28.1423 </r>
       <r>    -5.7383    18.2956    29.6433 </r>
       <r>    -5.6563     4.3326    29.9988 </r>
       <r>    -5.5742     0.0145    30.0000 </r>
       <r>    -5.4922     0.0000    30.0000 </r>
       <r>    -5.4102     0.0000    30.0000 </r>
       <r>    -5.3281     0.0000    30.0000 </r>
       <r>    -5.2461     0.0000    30.0000 </r>
       <r>    -5.1640     0.0000    30.0000 </r>
       <r>    -5.0820     0.0000    30.0000 </r>
       <r>    -4.9999     0.0000    30.0000 </r>
       <r>    -4.9179     0.0000    30.0000 </r>
       <r>    -4.8358     0.0000    30.0000 </r>
       <r>    -4.7538     0.0000    30.0000 </r>
       <r>    -4.6718     0.0000    30.0000 </r>
       <r>    -4.5897     0.0000    30.0000 </r>
       <r>    -4.5077     0.0000    30.0000 </r>
       <r>    -4.4256     0.0000    30.0000 </r>
       <r>    -4.3436     0.0000    30.0000 </r>
       <r>    -4.2615     0.0000    30.0000 </r>
       <r>    -4.1795     0.0000    30.0000 </r>
       <r>    -4.0975     0.0000    30.0000 </r>
       <r>    -4.0154     0.0000    30.0000 </r>
       <r>    -3.9334     0.0000    30.0000 </r>
       <r>    -3.8513     0.0000    30.0000 </r>
       <r>    -3.7693     0.0000    30.0000 </r>
       <r>    -3.6872     0.0000    30.0000 </r>
       <r>    -3.6052     0.0000    30.0000 </r>
       <r>    -3.5231     0.0000    30.0000 </r>
       <r>    -3.4411     0.0000    30.0000 </r>
       <r>    -3.3591     0.0000    30.0000 </r>
       <r>    -3.2770     0.0000    30.0000 </r>
       <r>    -3.1950     0.0000    30.0000 </r>
       <r>    -3.1129     0.0000    30.0000 </r>
       <r>    -3.0309     0.0000    30.0000 </r>
       <r>    -2.9488     0.0000    30.0000 </r>
       <r>    -2.8668     0.0000    30.0000 </r>
       <r>    -2.7847     0.0000    30.0000 </r>
       <r>    -2.7027     0.0000    30.0000 </r>
       <r>    -2.6207     0.0000    30.0000 </r>
       <r>    -2.5386     0.0000    30.0000 </r>
       <r>    -2.4566     0.0000    30.0000 </r>
       <r>    -2.3745     0.0000    30.0000 </r>
       <r>    -2.2925     0.0000    30.0000 </r>
       <r>    -2.2104     0.0000    30.0000 </r>
       <r>    -2.1284     0.0000    30.0000 </r>
       <r>    -2.0464     0.0000    30.0000 </r>
       <r>    -1.9643     0.0000    30.0000 </r>
       <r>    -1.8823     0.0000    30.0000 </r>
       <r>    -1.8002     0.0000    30.0000 </r>
       <r>    -1.7182     0.0000    30.0000 </r>
       <r>    -1.6361     0.0000    30.0000 </r>
       <r>    -1.5541     0.0000    30.0000 </r>
       <r>    -1.4720     0.0000    30.0000 </r>
       <r>    -1.3900     0.0000    30.0000 </r>
       <r>    -1.3080     0.0000    30.0000 </r>
       <r>    -1.2259     0.0000    30.0000 </r>
       <r>    -1.1439     0.0006    30.0001 </r>
       <r>    -1.0618     1.0246    30.0841 </r>
       <r>    -0.9798    16.6131    31.4471 </r>
       <r>    -0.8977     8.3362    32.1311 </r>
       <r>    -0.8157    17.7862    33.5903 </r>
       <r>    -0.7336     4.9733    33.9983 </r>
       <r>    -0.6516     0.0202    34.0000 </r>
       <r>    -0.5696     0.0044    34.0004 </r>
       <r>    -0.4875     2.5861    34.2125 </r>
       <r>    -0.4055    18.3391    35.7171 </r>
       <r>    -0.3234     3.4392    35.9993 </r>
       <r>    -0.2414     0.0084    36.0000 </r>
       <r>    -0.1593     0.0000    36.0000 </r>
       <r>    -0.0773     0.0000    36.0000 </r>
       <r>     0.0047     0.0000    36.0000 </r>
       <r>     0.0868     0.0000    36.0000 </r>
       <r>     0.1688     0.0000    36.0000 </r>
       <r>     0.2509     0.0000    36.0000 </r>
       <r>     0.3329     0.0000    36.0000 </r>
       <r>     0.4150     0.0000    36.0000 </r>
       <r>     0.4970     0.0000    36.0000 </r>
       <r>     0.5791     0.0063    36.0005 </r>
       <r>     0.6611     3.0680    36.2522 </r>
       <r>     0.7431    23.8166    38.2062 </r>
       <r>     0.8252    35.1956    41.0938 </r>
       <r>     0.9072    33.1019    43.8096 </r>
       <r>     0.9893    18.2077    45.3035 </r>
       <r>     1.0713     8.4078    45.9933 </r>
       <r>     1.1534     0.0817    46.0000 </r>
       <r>     1.2354     0.0000    46.0000 </r>
       <r>     1.3175     0.0189    46.0016 </r>
       <r>     1.3995     4.8414    46.3988 </r>
       <r>     1.4815    17.8135    47.8602 </r>
       <r>     1.5636     1.7016    47.9999 </r>
       <r>     1.6456     0.0018    48.0000 </r>
       <r>     1.7277     0.0000    48.0000 </r>
       <r>     1.8097     0.0000    48.0000 </r>
       <r>     1.8918     0.0000    48.0000 </r>
       <r>     1.9738     0.0000    48.0000 </r>
       <r>     2.0559     0.0000    48.0000 </r>
       <r>     2.1379     0.0000    48.0000 </r>
       <r>     2.2199     0.0000    48.0000 </r>
       <r>     2.3020     0.0000    48.0000 </r>
       <r>     2.3840     0.0000    48.0000 </r>
       <r>     2.4661     0.0000    48.0000 </r>
       <r>     2.5481     0.0000    48.0000 </r>
      </set>
     </set>
    </array>
   </total>
  </dos>
 </calculation>
 <structure name="finalpos" >
  <crystal>
   <varray name="basis" >
    <v>      10.58354422       0.00000000       0.00000000 </v>
    <v>       0.00000000      10.58354422       0.00000000 </v>
    <v>       0.00000000       0.00000000      10.58354422 </v>
   </varray>
   <i name="volume">   1185.47769178 </i>
   <varray name="rec_basis" >
    <v>       0.09448631       0.00000000       0.00000000 </v>
    <v>       0.00000000       0.09448631       0.00000000 </v>
    <v>       0.00000000       0.00000000       0.09448631 </v>
   </varray>
  </crystal>
  <varray name="positions" >
   <v>       0.50446805       0.63324780       0.48987155 </v>
   <v>       0.38389145       0.56719430       0.50274910 </v>
   <v>       0.38857685       0.43362600       0.50338885 </v>
   <v>       0.50368685       0.36833450       0.48825205 </v>
   <v>       0.60782730       0.43289790       0.51056345 </v>
   <v>       0.61306885       0.56247720       0.48812260 </v>
   <v>       0.51311630       0.73610520       0.49054020 </v>
   <v>       0.29015895       0.61937165       0.52150215 </v>
   <v>       0.29153770       0.37577680       0.49954545 </v>
   <v>       0.50605145       0.26439990       0.48028865 </v>
   <v>       0.69860455       0.39028470       0.52821920 </v>
   <v>       0.69901175       0.61628420       0.49695670 </v>
  </varray>
 </structure>
</modeling>
