<?xml version="1.0" encoding="ISO-8859-1"?>
<modeling>
 <generator>
  <i name="program" type="string">vasp </i>
  <i name="version" type="string">6.2.0  </i>
  <i name="subversion" type="string">18Jan21 (build Mar 25 2021 14:28:09) complex                          parallel </i>
  <i name="platform" type="string">LinuxGNU </i>
  <i name="date" type="string">2022 08 19 </i>
  <i name="time" type="string">11:36:55 </i>
 </generator>
 <incar>
  <i type="string" name="SYSTEM">al</i>
  <i type="int" name="ISTART">     0</i>
  <i type="string" name="PREC">Accurate</i>
  <i type="string" name="ALGO">Normal</i>
  <i type="int" name="NSIM">     8</i>
  <i type="int" name="NELM">   200</i>
  <i type="int" name="IBRION">    -1</i>
  <i name="EDIFF">      0.00000100</i>
  <i type="int" name="NSW">     0</i>
  <i name="ENCUT">    600.00000000</i>
  <i type="string" name="LREAL">Auto</i>
  <i type="int" name="ISMEAR">     0</i>
  <i name="SIGMA">      0.05000000</i>
  <i type="int" name="LMAXPAW">    -1</i>
  <i type="logical" name="LWAVE"> F  </i>
  <i type="logical" name="LCHARG"> T  </i>
  <i type="string" name="GGA">PE</i>
 </incar>
 <primitive_cell>
  <structure name="primitive_cell" >
   <crystal>
    <varray name="basis" >
     <v>       8.07809510       0.00000000       0.00000000 </v>
     <v>       0.00000000       8.07809510       0.00000000 </v>
     <v>       0.00000000       0.00000000       8.07809510 </v>
    </varray>
    <i name="volume">    527.14110776 </i>
    <varray name="rec_basis" >
     <v>       0.12379156       0.00000000       0.00000000 </v>
     <v>       0.00000000       0.12379156       0.00000000 </v>
     <v>       0.00000000       0.00000000       0.12379156 </v>
    </varray>
   </crystal>
   <varray name="positions" >
    <v>       0.00955818       0.99006748       0.99975023 </v>
    <v>       0.00606352       0.24899124       0.25128701 </v>
    <v>       0.26156416       0.98210464       0.24025836 </v>
    <v>       0.23617977       0.24608713       0.98675566 </v>
    <v>       0.98530570       0.00487368       0.48763953 </v>
    <v>       0.00348894       0.24505932       0.75359372 </v>
    <v>       0.23177246       0.99547119       0.72337648 </v>
    <v>       0.23876000       0.26303400       0.50472291 </v>
    <v>       0.00095125       0.50499012       0.00367840 </v>
    <v>       0.98852191       0.75535958       0.23200546 </v>
    <v>       0.22296727       0.49681977       0.24931311 </v>
    <v>       0.27061763       0.74965982       0.01216425 </v>
    <v>       0.99552308       0.51574392       0.50880360 </v>
    <v>       0.00939353       0.74825538       0.76320939 </v>
    <v>       0.25583994       0.49938541       0.75589417 </v>
    <v>       0.24665024       0.74963485       0.48665722 </v>
    <v>       0.50876973       0.00539260       0.99862277 </v>
    <v>       0.48215249       0.26711507       0.26624611 </v>
    <v>       0.75805349       0.00339533       0.24914689 </v>
    <v>       0.76359687       0.23766327       0.99640123 </v>
    <v>       0.50992832       0.98496612       0.49736577 </v>
    <v>       0.51078830       0.24121674       0.74814554 </v>
    <v>       0.74831372       0.98839905       0.75922562 </v>
    <v>       0.74508697       0.25285990       0.48098159 </v>
    <v>       0.50423398       0.48029909       0.99200684 </v>
    <v>       0.51920011       0.75530270       0.22963361 </v>
    <v>       0.75896332       0.51045464       0.24122534 </v>
    <v>       0.74197022       0.74340430       0.98596788 </v>
    <v>       0.49168476       0.51559032       0.50479102 </v>
    <v>       0.48391920       0.74596989       0.75260427 </v>
    <v>       0.75062567       0.48720505       0.75043438 </v>
    <v>       0.75017131       0.75260048       0.49749361 </v>
   </varray>
  </structure>
  <varray name="primitive_index" >
   <v type="int" >        1 </v>
   <v type="int" >        2 </v>
   <v type="int" >        3 </v>
   <v type="int" >        4 </v>
   <v type="int" >        5 </v>
   <v type="int" >        6 </v>
   <v type="int" >        7 </v>
   <v type="int" >        8 </v>
   <v type="int" >        9 </v>
   <v type="int" >       10 </v>
   <v type="int" >       11 </v>
   <v type="int" >       12 </v>
   <v type="int" >       13 </v>
   <v type="int" >       14 </v>
   <v type="int" >       15 </v>
   <v type="int" >       16 </v>
   <v type="int" >       17 </v>
   <v type="int" >       18 </v>
   <v type="int" >       19 </v>
   <v type="int" >       20 </v>
   <v type="int" >       21 </v>
   <v type="int" >       22 </v>
   <v type="int" >       23 </v>
   <v type="int" >       24 </v>
   <v type="int" >       25 </v>
   <v type="int" >       26 </v>
   <v type="int" >       27 </v>
   <v type="int" >       28 </v>
   <v type="int" >       29 </v>
   <v type="int" >       30 </v>
   <v type="int" >       31 </v>
   <v type="int" >       32 </v>
  </varray>
 </primitive_cell>
 <kpoints>
  <generation param="Gamma">
   <v type="int" name="divisions">       9        9        9 </v>
   <v name="usershift">      0.00000000       0.00000000       0.00000000 </v>
   <v name="genvec1">      0.11111111       0.00000000       0.00000000 </v>
   <v name="genvec2">      0.00000000       0.11111111       0.00000000 </v>
   <v name="genvec3">      0.00000000       0.00000000       0.11111111 </v>
   <v name="shift">      0.00000000       0.00000000       0.00000000 </v>
  </generation>
  <varray name="kpointlist" >
   <v>       0.00000000       0.00000000       0.00000000 </v>
   <v>       0.11111111       0.00000000       0.00000000 </v>
   <v>       0.00000000       0.11111111       0.00000000 </v>
   <v>       0.00000000       0.00000000       0.11111111 </v>
   <v>       0.22222222       0.00000000       0.00000000 </v>
   <v>       0.00000000       0.22222222       0.00000000 </v>
   <v>       0.00000000       0.00000000       0.22222222 </v>
   <v>       0.33333333       0.00000000       0.00000000 </v>
   <v>       0.00000000       0.33333333       0.00000000 </v>
   <v>       0.00000000       0.00000000       0.33333333 </v>
   <v>       0.44444444       0.00000000       0.00000000 </v>
   <v>       0.00000000       0.44444444       0.00000000 </v>
   <v>       0.00000000       0.00000000       0.44444444 </v>
   <v>       0.11111111       0.11111111       0.00000000 </v>
   <v>       0.00000000       0.11111111       0.11111111 </v>
   <v>       0.11111111       0.00000000       0.11111111 </v>
   <v>      -0.11111111       0.11111111       0.00000000 </v>
   <v>      -0.11111111       0.00000000       0.11111111 </v>
   <v>       0.00000000      -0.11111111       0.11111111 </v>
   <v>       0.22222222       0.11111111       0.00000000 </v>
   <v>       0.00000000       0.22222222       0.11111111 </v>
   <v>       0.11111111       0.00000000       0.22222222 </v>
   <v>      -0.11111111       0.22222222       0.00000000 </v>
   <v>      -0.22222222       0.00000000       0.11111111 </v>
   <v>       0.00000000       0.11111111       0.22222222 </v>
   <v>       0.00000000      -0.22222222       0.11111111 </v>
   <v>      -0.11111111       0.00000000       0.22222222 </v>
   <v>       0.22222222       0.00000000       0.11111111 </v>
   <v>       0.00000000      -0.11111111       0.22222222 </v>
   <v>       0.22222222      -0.11111111       0.00000000 </v>
   <v>       0.11111111       0.22222222       0.00000000 </v>
   <v>       0.33333333       0.11111111       0.00000000 </v>
   <v>       0.00000000       0.33333333       0.11111111 </v>
   <v>       0.11111111       0.00000000       0.33333333 </v>
   <v>      -0.11111111       0.33333333       0.00000000 </v>
   <v>      -0.33333333       0.00000000       0.11111111 </v>
   <v>       0.00000000       0.11111111       0.33333333 </v>
   <v>       0.00000000      -0.33333333       0.11111111 </v>
   <v>      -0.11111111       0.00000000       0.33333333 </v>
   <v>       0.33333333       0.00000000       0.11111111 </v>
   <v>       0.00000000      -0.11111111       0.33333333 </v>
   <v>       0.33333333      -0.11111111       0.00000000 </v>
   <v>       0.11111111       0.33333333       0.00000000 </v>
   <v>       0.44444444       0.11111111       0.00000000 </v>
   <v>       0.00000000       0.44444444       0.11111111 </v>
   <v>       0.11111111       0.00000000       0.44444444 </v>
   <v>      -0.11111111       0.44444444       0.00000000 </v>
   <v>      -0.44444444       0.00000000       0.11111111 </v>
   <v>       0.00000000       0.11111111       0.44444444 </v>
   <v>       0.00000000      -0.44444444       0.11111111 </v>
   <v>      -0.11111111       0.00000000       0.44444444 </v>
   <v>       0.44444444       0.00000000       0.11111111 </v>
   <v>       0.00000000      -0.11111111       0.44444444 </v>
   <v>       0.44444444      -0.11111111       0.00000000 </v>
   <v>       0.11111111       0.44444444       0.00000000 </v>
   <v>       0.22222222       0.22222222       0.00000000 </v>
   <v>       0.00000000       0.22222222       0.22222222 </v>
   <v>       0.22222222       0.00000000       0.22222222 </v>
   <v>      -0.22222222       0.22222222       0.00000000 </v>
   <v>      -0.22222222       0.00000000       0.22222222 </v>
   <v>       0.00000000      -0.22222222       0.22222222 </v>
   <v>       0.33333333       0.22222222       0.00000000 </v>
   <v>       0.00000000       0.33333333       0.22222222 </v>
   <v>       0.22222222       0.00000000       0.33333333 </v>
   <v>      -0.22222222       0.33333333       0.00000000 </v>
   <v>      -0.33333333       0.00000000       0.22222222 </v>
   <v>       0.00000000       0.22222222       0.33333333 </v>
   <v>       0.00000000      -0.33333333       0.22222222 </v>
   <v>      -0.22222222       0.00000000       0.33333333 </v>
   <v>       0.33333333       0.00000000       0.22222222 </v>
   <v>       0.00000000      -0.22222222       0.33333333 </v>
   <v>       0.33333333      -0.22222222       0.00000000 </v>
   <v>       0.22222222       0.33333333       0.00000000 </v>
   <v>       0.44444444       0.22222222       0.00000000 </v>
   <v>       0.00000000       0.44444444       0.22222222 </v>
   <v>       0.22222222       0.00000000       0.44444444 </v>
   <v>      -0.22222222       0.44444444       0.00000000 </v>
   <v>      -0.44444444       0.00000000       0.22222222 </v>
   <v>       0.00000000       0.22222222       0.44444444 </v>
   <v>       0.00000000      -0.44444444       0.22222222 </v>
   <v>      -0.22222222       0.00000000       0.44444444 </v>
   <v>       0.44444444       0.00000000       0.22222222 </v>
   <v>       0.00000000      -0.22222222       0.44444444 </v>
   <v>       0.44444444      -0.22222222       0.00000000 </v>
   <v>       0.22222222       0.44444444       0.00000000 </v>
   <v>       0.33333333       0.33333333       0.00000000 </v>
   <v>       0.00000000       0.33333333       0.33333333 </v>
   <v>       0.33333333       0.00000000       0.33333333 </v>
   <v>      -0.33333333       0.33333333       0.00000000 </v>
   <v>      -0.33333333       0.00000000       0.33333333 </v>
   <v>       0.00000000      -0.33333333       0.33333333 </v>
   <v>       0.44444444       0.33333333       0.00000000 </v>
   <v>       0.00000000       0.44444444       0.33333333 </v>
   <v>       0.33333333       0.00000000       0.44444444 </v>
   <v>      -0.33333333       0.44444444       0.00000000 </v>
   <v>      -0.44444444       0.00000000       0.33333333 </v>
   <v>       0.00000000       0.33333333       0.44444444 </v>
   <v>       0.00000000      -0.44444444       0.33333333 </v>
   <v>      -0.33333333       0.00000000       0.44444444 </v>
   <v>       0.44444444       0.00000000       0.33333333 </v>
   <v>       0.00000000      -0.33333333       0.44444444 </v>
   <v>       0.44444444      -0.33333333       0.00000000 </v>
   <v>       0.33333333       0.44444444       0.00000000 </v>
   <v>       0.44444444       0.44444444       0.00000000 </v>
   <v>       0.00000000       0.44444444       0.44444444 </v>
   <v>       0.44444444       0.00000000       0.44444444 </v>
   <v>      -0.44444444       0.44444444       0.00000000 </v>
   <v>      -0.44444444       0.00000000       0.44444444 </v>
   <v>       0.00000000      -0.44444444       0.44444444 </v>
   <v>       0.11111111       0.11111111       0.11111111 </v>
   <v>      -0.11111111       0.11111111       0.11111111 </v>
   <v>      -0.11111111      -0.11111111       0.11111111 </v>
   <v>       0.11111111      -0.11111111       0.11111111 </v>
   <v>       0.22222222       0.11111111       0.11111111 </v>
   <v>       0.11111111       0.22222222       0.11111111 </v>
   <v>       0.11111111       0.11111111       0.22222222 </v>
   <v>      -0.11111111       0.22222222       0.11111111 </v>
   <v>      -0.22222222       0.11111111       0.11111111 </v>
   <v>      -0.11111111       0.11111111       0.22222222 </v>
   <v>      -0.22222222      -0.11111111       0.11111111 </v>
   <v>      -0.11111111      -0.22222222       0.11111111 </v>
   <v>      -0.11111111      -0.11111111       0.22222222 </v>
   <v>       0.11111111      -0.22222222       0.11111111 </v>
   <v>       0.22222222      -0.11111111       0.11111111 </v>
   <v>       0.11111111      -0.11111111       0.22222222 </v>
   <v>       0.33333333       0.11111111       0.11111111 </v>
   <v>       0.11111111       0.33333333       0.11111111 </v>
   <v>       0.11111111       0.11111111       0.33333333 </v>
   <v>      -0.11111111       0.33333333       0.11111111 </v>
   <v>      -0.33333333       0.11111111       0.11111111 </v>
   <v>      -0.11111111       0.11111111       0.33333333 </v>
   <v>      -0.33333333      -0.11111111       0.11111111 </v>
   <v>      -0.11111111      -0.33333333       0.11111111 </v>
   <v>      -0.11111111      -0.11111111       0.33333333 </v>
   <v>       0.11111111      -0.33333333       0.11111111 </v>
   <v>       0.33333333      -0.11111111       0.11111111 </v>
   <v>       0.11111111      -0.11111111       0.33333333 </v>
   <v>       0.44444444       0.11111111       0.11111111 </v>
   <v>       0.11111111       0.44444444       0.11111111 </v>
   <v>       0.11111111       0.11111111       0.44444444 </v>
   <v>      -0.11111111       0.44444444       0.11111111 </v>
   <v>      -0.44444444       0.11111111       0.11111111 </v>
   <v>      -0.11111111       0.11111111       0.44444444 </v>
   <v>      -0.44444444      -0.11111111       0.11111111 </v>
   <v>      -0.11111111      -0.44444444       0.11111111 </v>
   <v>      -0.11111111      -0.11111111       0.44444444 </v>
   <v>       0.11111111      -0.44444444       0.11111111 </v>
   <v>       0.44444444      -0.11111111       0.11111111 </v>
   <v>       0.11111111      -0.11111111       0.44444444 </v>
   <v>       0.22222222       0.22222222       0.11111111 </v>
   <v>       0.11111111       0.22222222       0.22222222 </v>
   <v>       0.22222222       0.11111111       0.22222222 </v>
   <v>      -0.22222222       0.22222222       0.11111111 </v>
   <v>      -0.22222222       0.11111111       0.22222222 </v>
   <v>      -0.11111111       0.22222222       0.22222222 </v>
   <v>      -0.22222222      -0.22222222       0.11111111 </v>
   <v>      -0.11111111      -0.22222222       0.22222222 </v>
   <v>      -0.22222222      -0.11111111       0.22222222 </v>
   <v>       0.22222222      -0.22222222       0.11111111 </v>
   <v>       0.22222222      -0.11111111       0.22222222 </v>
   <v>       0.11111111      -0.22222222       0.22222222 </v>
   <v>       0.33333333       0.22222222       0.11111111 </v>
   <v>       0.11111111       0.33333333       0.22222222 </v>
   <v>       0.22222222       0.11111111       0.33333333 </v>
   <v>      -0.22222222       0.33333333       0.11111111 </v>
   <v>      -0.33333333       0.11111111       0.22222222 </v>
   <v>      -0.11111111       0.22222222       0.33333333 </v>
   <v>      -0.33333333      -0.22222222       0.11111111 </v>
   <v>      -0.11111111      -0.33333333       0.22222222 </v>
   <v>      -0.22222222      -0.11111111       0.33333333 </v>
   <v>       0.22222222      -0.33333333       0.11111111 </v>
   <v>       0.33333333      -0.11111111       0.22222222 </v>
   <v>       0.11111111      -0.22222222       0.33333333 </v>
   <v>       0.11111111      -0.33333333      -0.22222222 </v>
   <v>       0.22222222      -0.11111111      -0.33333333 </v>
   <v>       0.33333333      -0.22222222      -0.11111111 </v>
   <v>       0.11111111       0.22222222      -0.33333333 </v>
   <v>       0.22222222       0.33333333      -0.11111111 </v>
   <v>       0.33333333       0.11111111      -0.22222222 </v>
   <v>      -0.22222222       0.11111111      -0.33333333 </v>
   <v>      -0.33333333       0.22222222      -0.11111111 </v>
   <v>      -0.11111111       0.33333333      -0.22222222 </v>
   <v>      -0.33333333      -0.11111111      -0.22222222 </v>
   <v>      -0.22222222      -0.33333333      -0.11111111 </v>
   <v>      -0.11111111      -0.22222222      -0.33333333 </v>
   <v>       0.44444444       0.22222222       0.11111111 </v>
   <v>       0.11111111       0.44444444       0.22222222 </v>
   <v>       0.22222222       0.11111111       0.44444444 </v>
   <v>      -0.22222222       0.44444444       0.11111111 </v>
   <v>      -0.44444444       0.11111111       0.22222222 </v>
   <v>      -0.11111111       0.22222222       0.44444444 </v>
   <v>      -0.44444444      -0.22222222       0.11111111 </v>
   <v>      -0.11111111      -0.44444444       0.22222222 </v>
   <v>      -0.22222222      -0.11111111       0.44444444 </v>
   <v>       0.22222222      -0.44444444       0.11111111 </v>
   <v>       0.44444444      -0.11111111       0.22222222 </v>
   <v>       0.11111111      -0.22222222       0.44444444 </v>
   <v>       0.11111111      -0.44444444      -0.22222222 </v>
   <v>       0.22222222      -0.11111111      -0.44444444 </v>
   <v>       0.44444444      -0.22222222      -0.11111111 </v>
   <v>       0.11111111       0.22222222      -0.44444444 </v>
   <v>       0.22222222       0.44444444      -0.11111111 </v>
   <v>       0.44444444       0.11111111      -0.22222222 </v>
   <v>      -0.22222222       0.11111111      -0.44444444 </v>
   <v>      -0.44444444       0.22222222      -0.11111111 </v>
   <v>      -0.11111111       0.44444444      -0.22222222 </v>
   <v>      -0.44444444      -0.11111111      -0.22222222 </v>
   <v>      -0.22222222      -0.44444444      -0.11111111 </v>
   <v>      -0.11111111      -0.22222222      -0.44444444 </v>
   <v>       0.33333333       0.33333333       0.11111111 </v>
   <v>       0.11111111       0.33333333       0.33333333 </v>
   <v>       0.33333333       0.11111111       0.33333333 </v>
   <v>      -0.33333333       0.33333333       0.11111111 </v>
   <v>      -0.33333333       0.11111111       0.33333333 </v>
   <v>      -0.11111111       0.33333333       0.33333333 </v>
   <v>      -0.33333333      -0.33333333       0.11111111 </v>
   <v>      -0.11111111      -0.33333333       0.33333333 </v>
   <v>      -0.33333333      -0.11111111       0.33333333 </v>
   <v>       0.33333333      -0.33333333       0.11111111 </v>
   <v>       0.33333333      -0.11111111       0.33333333 </v>
   <v>       0.11111111      -0.33333333       0.33333333 </v>
   <v>       0.44444444       0.33333333       0.11111111 </v>
   <v>       0.11111111       0.44444444       0.33333333 </v>
   <v>       0.33333333       0.11111111       0.44444444 </v>
   <v>      -0.33333333       0.44444444       0.11111111 </v>
   <v>      -0.44444444       0.11111111       0.33333333 </v>
   <v>      -0.11111111       0.33333333       0.44444444 </v>
   <v>      -0.44444444      -0.33333333       0.11111111 </v>
   <v>      -0.11111111      -0.44444444       0.33333333 </v>
   <v>      -0.33333333      -0.11111111       0.44444444 </v>
   <v>       0.33333333      -0.44444444       0.11111111 </v>
   <v>       0.44444444      -0.11111111       0.33333333 </v>
   <v>       0.11111111      -0.33333333       0.44444444 </v>
   <v>       0.11111111      -0.44444444      -0.33333333 </v>
   <v>       0.33333333      -0.11111111      -0.44444444 </v>
   <v>       0.44444444      -0.33333333      -0.11111111 </v>
   <v>       0.11111111       0.33333333      -0.44444444 </v>
   <v>       0.33333333       0.44444444      -0.11111111 </v>
   <v>       0.44444444       0.11111111      -0.33333333 </v>
   <v>      -0.33333333       0.11111111      -0.44444444 </v>
   <v>      -0.44444444       0.33333333      -0.11111111 </v>
   <v>      -0.11111111       0.44444444      -0.33333333 </v>
   <v>      -0.44444444      -0.11111111      -0.33333333 </v>
   <v>      -0.33333333      -0.44444444      -0.11111111 </v>
   <v>      -0.11111111      -0.33333333      -0.44444444 </v>
   <v>       0.44444444       0.44444444       0.11111111 </v>
   <v>       0.11111111       0.44444444       0.44444444 </v>
   <v>       0.44444444       0.11111111       0.44444444 </v>
   <v>      -0.44444444       0.44444444       0.11111111 </v>
   <v>      -0.44444444       0.11111111       0.44444444 </v>
   <v>      -0.11111111       0.44444444       0.44444444 </v>
   <v>      -0.44444444      -0.44444444       0.11111111 </v>
   <v>      -0.11111111      -0.44444444       0.44444444 </v>
   <v>      -0.44444444      -0.11111111       0.44444444 </v>
   <v>       0.44444444      -0.44444444       0.11111111 </v>
   <v>       0.44444444      -0.11111111       0.44444444 </v>
   <v>       0.11111111      -0.44444444       0.44444444 </v>
   <v>       0.22222222       0.22222222       0.22222222 </v>
   <v>      -0.22222222       0.22222222       0.22222222 </v>
   <v>      -0.22222222      -0.22222222       0.22222222 </v>
   <v>       0.22222222      -0.22222222       0.22222222 </v>
   <v>       0.33333333       0.22222222       0.22222222 </v>
   <v>       0.22222222       0.33333333       0.22222222 </v>
   <v>       0.22222222       0.22222222       0.33333333 </v>
   <v>      -0.22222222       0.33333333       0.22222222 </v>
   <v>      -0.33333333       0.22222222       0.22222222 </v>
   <v>      -0.22222222       0.22222222       0.33333333 </v>
   <v>      -0.33333333      -0.22222222       0.22222222 </v>
   <v>      -0.22222222      -0.33333333       0.22222222 </v>
   <v>      -0.22222222      -0.22222222       0.33333333 </v>
   <v>       0.22222222      -0.33333333       0.22222222 </v>
   <v>       0.33333333      -0.22222222       0.22222222 </v>
   <v>       0.22222222      -0.22222222       0.33333333 </v>
   <v>       0.44444444       0.22222222       0.22222222 </v>
   <v>       0.22222222       0.44444444       0.22222222 </v>
   <v>       0.22222222       0.22222222       0.44444444 </v>
   <v>      -0.22222222       0.44444444       0.22222222 </v>
   <v>      -0.44444444       0.22222222       0.22222222 </v>
   <v>      -0.22222222       0.22222222       0.44444444 </v>
   <v>      -0.44444444      -0.22222222       0.22222222 </v>
   <v>      -0.22222222      -0.44444444       0.22222222 </v>
   <v>      -0.22222222      -0.22222222       0.44444444 </v>
   <v>       0.22222222      -0.44444444       0.22222222 </v>
   <v>       0.44444444      -0.22222222       0.22222222 </v>
   <v>       0.22222222      -0.22222222       0.44444444 </v>
   <v>       0.33333333       0.33333333       0.22222222 </v>
   <v>       0.22222222       0.33333333       0.33333333 </v>
   <v>       0.33333333       0.22222222       0.33333333 </v>
   <v>      -0.33333333       0.33333333       0.22222222 </v>
   <v>      -0.33333333       0.22222222       0.33333333 </v>
   <v>      -0.22222222       0.33333333       0.33333333 </v>
   <v>      -0.33333333      -0.33333333       0.22222222 </v>
   <v>      -0.22222222      -0.33333333       0.33333333 </v>
   <v>      -0.33333333      -0.22222222       0.33333333 </v>
   <v>       0.33333333      -0.33333333       0.22222222 </v>
   <v>       0.33333333      -0.22222222       0.33333333 </v>
   <v>       0.22222222      -0.33333333       0.33333333 </v>
   <v>       0.44444444       0.33333333       0.22222222 </v>
   <v>       0.22222222       0.44444444       0.33333333 </v>
   <v>       0.33333333       0.22222222       0.44444444 </v>
   <v>      -0.33333333       0.44444444       0.22222222 </v>
   <v>      -0.44444444       0.22222222       0.33333333 </v>
   <v>      -0.22222222       0.33333333       0.44444444 </v>
   <v>      -0.44444444      -0.33333333       0.22222222 </v>
   <v>      -0.22222222      -0.44444444       0.33333333 </v>
   <v>      -0.33333333      -0.22222222       0.44444444 </v>
   <v>       0.33333333      -0.44444444       0.22222222 </v>
   <v>       0.44444444      -0.22222222       0.33333333 </v>
   <v>       0.22222222      -0.33333333       0.44444444 </v>
   <v>       0.22222222      -0.44444444      -0.33333333 </v>
   <v>       0.33333333      -0.22222222      -0.44444444 </v>
   <v>       0.44444444      -0.33333333      -0.22222222 </v>
   <v>       0.22222222       0.33333333      -0.44444444 </v>
   <v>       0.33333333       0.44444444      -0.22222222 </v>
   <v>       0.44444444       0.22222222      -0.33333333 </v>
   <v>      -0.33333333       0.22222222      -0.44444444 </v>
   <v>      -0.44444444       0.33333333      -0.22222222 </v>
   <v>      -0.22222222       0.44444444      -0.33333333 </v>
   <v>      -0.44444444      -0.22222222      -0.33333333 </v>
   <v>      -0.33333333      -0.44444444      -0.22222222 </v>
   <v>      -0.22222222      -0.33333333      -0.44444444 </v>
   <v>       0.44444444       0.44444444       0.22222222 </v>
   <v>       0.22222222       0.44444444       0.44444444 </v>
   <v>       0.44444444       0.22222222       0.44444444 </v>
   <v>      -0.44444444       0.44444444       0.22222222 </v>
   <v>      -0.44444444       0.22222222       0.44444444 </v>
   <v>      -0.22222222       0.44444444       0.44444444 </v>
   <v>      -0.44444444      -0.44444444       0.22222222 </v>
   <v>      -0.22222222      -0.44444444       0.44444444 </v>
   <v>      -0.44444444      -0.22222222       0.44444444 </v>
   <v>       0.44444444      -0.44444444       0.22222222 </v>
   <v>       0.44444444      -0.22222222       0.44444444 </v>
   <v>       0.22222222      -0.44444444       0.44444444 </v>
   <v>       0.33333333       0.33333333       0.33333333 </v>
   <v>      -0.33333333       0.33333333       0.33333333 </v>
   <v>      -0.33333333      -0.33333333       0.33333333 </v>
   <v>       0.33333333      -0.33333333       0.33333333 </v>
   <v>       0.44444444       0.33333333       0.33333333 </v>
   <v>       0.33333333       0.44444444       0.33333333 </v>
   <v>       0.33333333       0.33333333       0.44444444 </v>
   <v>      -0.33333333       0.44444444       0.33333333 </v>
   <v>      -0.44444444       0.33333333       0.33333333 </v>
   <v>      -0.33333333       0.33333333       0.44444444 </v>
   <v>      -0.44444444      -0.33333333       0.33333333 </v>
   <v>      -0.33333333      -0.44444444       0.33333333 </v>
   <v>      -0.33333333      -0.33333333       0.44444444 </v>
   <v>       0.33333333      -0.44444444       0.33333333 </v>
   <v>       0.44444444      -0.33333333       0.33333333 </v>
   <v>       0.33333333      -0.33333333       0.44444444 </v>
   <v>       0.44444444       0.44444444       0.33333333 </v>
   <v>       0.33333333       0.44444444       0.44444444 </v>
   <v>       0.44444444       0.33333333       0.44444444 </v>
   <v>      -0.44444444       0.44444444       0.33333333 </v>
   <v>      -0.44444444       0.33333333       0.44444444 </v>
   <v>      -0.33333333       0.44444444       0.44444444 </v>
   <v>      -0.44444444      -0.44444444       0.33333333 </v>
   <v>      -0.33333333      -0.44444444       0.44444444 </v>
   <v>      -0.44444444      -0.33333333       0.44444444 </v>
   <v>       0.44444444      -0.44444444       0.33333333 </v>
   <v>       0.44444444      -0.33333333       0.44444444 </v>
   <v>       0.33333333      -0.44444444       0.44444444 </v>
   <v>       0.44444444       0.44444444       0.44444444 </v>
   <v>      -0.44444444       0.44444444       0.44444444 </v>
   <v>      -0.44444444      -0.44444444       0.44444444 </v>
   <v>       0.44444444      -0.44444444       0.44444444 </v>
  </varray>
  <varray name="weights" >
   <v>       0.00137174 </v>
   <v>       0.00274348 </v>
   <v>       0.00274348 </v>
   <v>       0.00274348 </v>
   <v>       0.00274348 </v>
   <v>       0.00274348 </v>
   <v>       0.00274348 </v>
   <v>       0.00274348 </v>
   <v>       0.00274348 </v>
   <v>       0.00274348 </v>
   <v>       0.00274348 </v>
   <v>       0.00274348 </v>
   <v>       0.00274348 </v>
   <v>       0.00274348 </v>
   <v>       0.00274348 </v>
   <v>       0.00274348 </v>
   <v>       0.00274348 </v>
   <v>       0.00274348 </v>
   <v>       0.00274348 </v>
   <v>       0.00274348 </v>
   <v>       0.00274348 </v>
   <v>       0.00274348 </v>
   <v>       0.00274348 </v>
   <v>       0.00274348 </v>
   <v>       0.00274348 </v>
   <v>       0.00274348 </v>
   <v>       0.00274348 </v>
   <v>       0.00274348 </v>
   <v>       0.00274348 </v>
   <v>       0.00274348 </v>
   <v>       0.00274348 </v>
   <v>       0.00274348 </v>
   <v>       0.00274348 </v>
   <v>       0.00274348 </v>
   <v>       0.00274348 </v>
   <v>       0.00274348 </v>
   <v>       0.00274348 </v>
   <v>       0.00274348 </v>
   <v>       0.00274348 </v>
   <v>       0.00274348 </v>
   <v>       0.00274348 </v>
   <v>       0.00274348 </v>
   <v>       0.00274348 </v>
   <v>       0.00274348 </v>
   <v>       0.00274348 </v>
   <v>       0.00274348 </v>
   <v>       0.00274348 </v>
   <v>       0.00274348 </v>
   <v>       0.00274348 </v>
   <v>       0.00274348 </v>
   <v>       0.00274348 </v>
   <v>       0.00274348 </v>
   <v>       0.00274348 </v>
   <v>       0.00274348 </v>
   <v>       0.00274348 </v>
   <v>       0.00274348 </v>
   <v>       0.00274348 </v>
   <v>       0.00274348 </v>
   <v>       0.00274348 </v>
   <v>       0.00274348 </v>
   <v>       0.00274348 </v>
   <v>       0.00274348 </v>
   <v>       0.00274348 </v>
   <v>       0.00274348 </v>
   <v>       0.00274348 </v>
   <v>       0.00274348 </v>
   <v>       0.00274348 </v>
   <v>       0.00274348 </v>
   <v>       0.00274348 </v>
   <v>       0.00274348 </v>
   <v>       0.00274348 </v>
   <v>       0.00274348 </v>
   <v>       0.00274348 </v>
   <v>       0.00274348 </v>
   <v>       0.00274348 </v>
   <v>       0.00274348 </v>
   <v>       0.00274348 </v>
   <v>       0.00274348 </v>
   <v>       0.00274348 </v>
   <v>       0.00274348 </v>
   <v>       0.00274348 </v>
   <v>       0.00274348 </v>
   <v>       0.00274348 </v>
   <v>       0.00274348 </v>
   <v>       0.00274348 </v>
   <v>       0.00274348 </v>
   <v>       0.00274348 </v>
   <v>       0.00274348 </v>
   <v>       0.00274348 </v>
   <v>       0.00274348 </v>
   <v>       0.00274348 </v>
   <v>       0.00274348 </v>
   <v>       0.00274348 </v>
   <v>       0.00274348 </v>
   <v>       0.00274348 </v>
   <v>       0.00274348 </v>
   <v>       0.00274348 </v>
   <v>       0.00274348 </v>
   <v>       0.00274348 </v>
   <v>       0.00274348 </v>
   <v>       0.00274348 </v>
   <v>       0.00274348 </v>
   <v>       0.00274348 </v>
   <v>       0.00274348 </v>
   <v>       0.00274348 </v>
   <v>       0.00274348 </v>
   <v>       0.00274348 </v>
   <v>       0.00274348 </v>
   <v>       0.00274348 </v>
   <v>       0.00274348 </v>
   <v>       0.00274348 </v>
   <v>       0.00274348 </v>
   <v>       0.00274348 </v>
   <v>       0.00274348 </v>
   <v>       0.00274348 </v>
   <v>       0.00274348 </v>
   <v>       0.00274348 </v>
   <v>       0.00274348 </v>
   <v>       0.00274348 </v>
   <v>       0.00274348 </v>
   <v>       0.00274348 </v>
   <v>       0.00274348 </v>
   <v>       0.00274348 </v>
   <v>       0.00274348 </v>
   <v>       0.00274348 </v>
   <v>       0.00274348 </v>
   <v>       0.00274348 </v>
   <v>       0.00274348 </v>
   <v>       0.00274348 </v>
   <v>       0.00274348 </v>
   <v>       0.00274348 </v>
   <v>       0.00274348 </v>
   <v>       0.00274348 </v>
   <v>       0.00274348 </v>
   <v>       0.00274348 </v>
   <v>       0.00274348 </v>
   <v>       0.00274348 </v>
   <v>       0.00274348 </v>
   <v>       0.00274348 </v>
   <v>       0.00274348 </v>
   <v>       0.00274348 </v>
   <v>       0.00274348 </v>
   <v>       0.00274348 </v>
   <v>       0.00274348 </v>
   <v>       0.00274348 </v>
   <v>       0.00274348 </v>
   <v>       0.00274348 </v>
   <v>       0.00274348 </v>
   <v>       0.00274348 </v>
   <v>       0.00274348 </v>
   <v>       0.00274348 </v>
   <v>       0.00274348 </v>
   <v>       0.00274348 </v>
   <v>       0.00274348 </v>
   <v>       0.00274348 </v>
   <v>       0.00274348 </v>
   <v>       0.00274348 </v>
   <v>       0.00274348 </v>
   <v>       0.00274348 </v>
   <v>       0.00274348 </v>
   <v>       0.00274348 </v>
   <v>       0.00274348 </v>
   <v>       0.00274348 </v>
   <v>       0.00274348 </v>
   <v>       0.00274348 </v>
   <v>       0.00274348 </v>
   <v>       0.00274348 </v>
   <v>       0.00274348 </v>
   <v>       0.00274348 </v>
   <v>       0.00274348 </v>
   <v>       0.00274348 </v>
   <v>       0.00274348 </v>
   <v>       0.00274348 </v>
   <v>       0.00274348 </v>
   <v>       0.00274348 </v>
   <v>       0.00274348 </v>
   <v>       0.00274348 </v>
   <v>       0.00274348 </v>
   <v>       0.00274348 </v>
   <v>       0.00274348 </v>
   <v>       0.00274348 </v>
   <v>       0.00274348 </v>
   <v>       0.00274348 </v>
   <v>       0.00274348 </v>
   <v>       0.00274348 </v>
   <v>       0.00274348 </v>
   <v>       0.00274348 </v>
   <v>       0.00274348 </v>
   <v>       0.00274348 </v>
   <v>       0.00274348 </v>
   <v>       0.00274348 </v>
   <v>       0.00274348 </v>
   <v>       0.00274348 </v>
   <v>       0.00274348 </v>
   <v>       0.00274348 </v>
   <v>       0.00274348 </v>
   <v>       0.00274348 </v>
   <v>       0.00274348 </v>
   <v>       0.00274348 </v>
   <v>       0.00274348 </v>
   <v>       0.00274348 </v>
   <v>       0.00274348 </v>
   <v>       0.00274348 </v>
   <v>       0.00274348 </v>
   <v>       0.00274348 </v>
   <v>       0.00274348 </v>
   <v>       0.00274348 </v>
   <v>       0.00274348 </v>
   <v>       0.00274348 </v>
   <v>       0.00274348 </v>
   <v>       0.00274348 </v>
   <v>       0.00274348 </v>
   <v>       0.00274348 </v>
   <v>       0.00274348 </v>
   <v>       0.00274348 </v>
   <v>       0.00274348 </v>
   <v>       0.00274348 </v>
   <v>       0.00274348 </v>
   <v>       0.00274348 </v>
   <v>       0.00274348 </v>
   <v>       0.00274348 </v>
   <v>       0.00274348 </v>
   <v>       0.00274348 </v>
   <v>       0.00274348 </v>
   <v>       0.00274348 </v>
   <v>       0.00274348 </v>
   <v>       0.00274348 </v>
   <v>       0.00274348 </v>
   <v>       0.00274348 </v>
   <v>       0.00274348 </v>
   <v>       0.00274348 </v>
   <v>       0.00274348 </v>
   <v>       0.00274348 </v>
   <v>       0.00274348 </v>
   <v>       0.00274348 </v>
   <v>       0.00274348 </v>
   <v>       0.00274348 </v>
   <v>       0.00274348 </v>
   <v>       0.00274348 </v>
   <v>       0.00274348 </v>
   <v>       0.00274348 </v>
   <v>       0.00274348 </v>
   <v>       0.00274348 </v>
   <v>       0.00274348 </v>
   <v>       0.00274348 </v>
   <v>       0.00274348 </v>
   <v>       0.00274348 </v>
   <v>       0.00274348 </v>
   <v>       0.00274348 </v>
   <v>       0.00274348 </v>
   <v>       0.00274348 </v>
   <v>       0.00274348 </v>
   <v>       0.00274348 </v>
   <v>       0.00274348 </v>
   <v>       0.00274348 </v>
   <v>       0.00274348 </v>
   <v>       0.00274348 </v>
   <v>       0.00274348 </v>
   <v>       0.00274348 </v>
   <v>       0.00274348 </v>
   <v>       0.00274348 </v>
   <v>       0.00274348 </v>
   <v>       0.00274348 </v>
   <v>       0.00274348 </v>
   <v>       0.00274348 </v>
   <v>       0.00274348 </v>
   <v>       0.00274348 </v>
   <v>       0.00274348 </v>
   <v>       0.00274348 </v>
   <v>       0.00274348 </v>
   <v>       0.00274348 </v>
   <v>       0.00274348 </v>
   <v>       0.00274348 </v>
   <v>       0.00274348 </v>
   <v>       0.00274348 </v>
   <v>       0.00274348 </v>
   <v>       0.00274348 </v>
   <v>       0.00274348 </v>
   <v>       0.00274348 </v>
   <v>       0.00274348 </v>
   <v>       0.00274348 </v>
   <v>       0.00274348 </v>
   <v>       0.00274348 </v>
   <v>       0.00274348 </v>
   <v>       0.00274348 </v>
   <v>       0.00274348 </v>
   <v>       0.00274348 </v>
   <v>       0.00274348 </v>
   <v>       0.00274348 </v>
   <v>       0.00274348 </v>
   <v>       0.00274348 </v>
   <v>       0.00274348 </v>
   <v>       0.00274348 </v>
   <v>       0.00274348 </v>
   <v>       0.00274348 </v>
   <v>       0.00274348 </v>
   <v>       0.00274348 </v>
   <v>       0.00274348 </v>
   <v>       0.00274348 </v>
   <v>       0.00274348 </v>
   <v>       0.00274348 </v>
   <v>       0.00274348 </v>
   <v>       0.00274348 </v>
   <v>       0.00274348 </v>
   <v>       0.00274348 </v>
   <v>       0.00274348 </v>
   <v>       0.00274348 </v>
   <v>       0.00274348 </v>
   <v>       0.00274348 </v>
   <v>       0.00274348 </v>
   <v>       0.00274348 </v>
   <v>       0.00274348 </v>
   <v>       0.00274348 </v>
   <v>       0.00274348 </v>
   <v>       0.00274348 </v>
   <v>       0.00274348 </v>
   <v>       0.00274348 </v>
   <v>       0.00274348 </v>
   <v>       0.00274348 </v>
   <v>       0.00274348 </v>
   <v>       0.00274348 </v>
   <v>       0.00274348 </v>
   <v>       0.00274348 </v>
   <v>       0.00274348 </v>
   <v>       0.00274348 </v>
   <v>       0.00274348 </v>
   <v>       0.00274348 </v>
   <v>       0.00274348 </v>
   <v>       0.00274348 </v>
   <v>       0.00274348 </v>
   <v>       0.00274348 </v>
   <v>       0.00274348 </v>
   <v>       0.00274348 </v>
   <v>       0.00274348 </v>
   <v>       0.00274348 </v>
   <v>       0.00274348 </v>
   <v>       0.00274348 </v>
   <v>       0.00274348 </v>
   <v>       0.00274348 </v>
   <v>       0.00274348 </v>
   <v>       0.00274348 </v>
   <v>       0.00274348 </v>
   <v>       0.00274348 </v>
   <v>       0.00274348 </v>
   <v>       0.00274348 </v>
   <v>       0.00274348 </v>
   <v>       0.00274348 </v>
   <v>       0.00274348 </v>
   <v>       0.00274348 </v>
   <v>       0.00274348 </v>
   <v>       0.00274348 </v>
   <v>       0.00274348 </v>
   <v>       0.00274348 </v>
   <v>       0.00274348 </v>
   <v>       0.00274348 </v>
   <v>       0.00274348 </v>
   <v>       0.00274348 </v>
   <v>       0.00274348 </v>
   <v>       0.00274348 </v>
   <v>       0.00274348 </v>
   <v>       0.00274348 </v>
   <v>       0.00274348 </v>
   <v>       0.00274348 </v>
   <v>       0.00274348 </v>
   <v>       0.00274348 </v>
  </varray>
 </kpoints>
 <parameters>
  <separator name="general" >
   <i type="string" name="SYSTEM">al</i>
   <i type="logical" name="LCOMPAT"> F  </i>
  </separator>
  <separator name="electronic" >
   <i type="string" name="PREC">accura</i>
   <i name="ENMAX">    600.00000000</i>
   <i name="ENAUG">    291.05200000</i>
   <i name="EDIFF">      0.00000100</i>
   <i type="int" name="IALGO">    38</i>
   <i type="int" name="IWAVPR">    10</i>
   <i type="int" name="NBANDS">    72</i>
   <i type="int" name="NBANDSLOW">    -1</i>
   <i type="int" name="NBANDSHIGH">    -1</i>
   <i name="NELECT">     96.00000000</i>
   <i type="int" name="TURBO">     0</i>
   <i type="int" name="IRESTART">     0</i>
   <i type="int" name="NREBOOT">     0</i>
   <i type="int" name="NMIN">     0</i>
   <i name="EREF">      0.00000000</i>
   <separator name="electronic smearing" >
    <i type="int" name="ISMEAR">     0</i>
    <i name="SIGMA">      0.05000000</i>
    <i name="KSPACING">      0.50000000</i>
    <i type="logical" name="KGAMMA"> T  </i>
    <i type="logical" name="KBLOWUP"> T  </i>
   </separator>
   <separator name="electronic projectors" >
    <i type="logical" name="LREAL"> T  </i>
    <v name="ROPT">     -0.00025000</v>
    <i type="int" name="LMAXPAW">    -1</i>
    <i type="int" name="LMAXMIX">     2</i>
    <i type="logical" name="NLSPLINE"> F  </i>
   </separator>
   <separator name="electronic startup" >
    <i type="int" name="ISTART">     0</i>
    <i type="int" name="ICHARG">     2</i>
    <i type="int" name="INIWAV">     1</i>
   </separator>
   <separator name="electronic spin" >
    <i type="int" name="ISPIN">     1</i>
    <i type="logical" name="LNONCOLLINEAR"> F  </i>
    <v name="MAGMOM">      1.00000000      1.00000000      1.00000000      1.00000000      1.00000000      1.00000000      1.00000000      1.00000000      1.00000000      1.00000000      1.00000000      1.00000000      1.00000000      1.00000000      1.00000000      1.00000000      1.00000000      1.00000000      1.00000000      1.00000000
      1.00000000      1.00000000      1.00000000      1.00000000      1.00000000      1.00000000      1.00000000      1.00000000      1.00000000      1.00000000      1.00000000      1.00000000</v>
    <i name="NUPDOWN">     -1.00000000</i>
    <i type="logical" name="LSORBIT"> F  </i>
    <v name="SAXIS">      0.00000000      0.00000000      1.00000000</v>
    <i type="logical" name="LSPIRAL"> F  </i>
    <v name="QSPIRAL">      0.00000000      0.00000000      0.00000000</v>
    <i type="logical" name="LZEROZ"> F  </i>
   </separator>
   <separator name="electronic exchange-correlation" >
    <i type="logical" name="LASPH"> F  </i>
    <i type="logical" name="LMETAGGA"> F  </i>
   </separator>
   <separator name="electronic convergence" >
    <i type="int" name="NELM">   200</i>
    <i type="int" name="NELMDL">    -5</i>
    <i type="int" name="NELMIN">     2</i>
    <i name="ENINI">    600.00000000</i>
    <separator name="electronic convergence detail" >
     <i type="logical" name="LDIAG"> T  </i>
     <i type="logical" name="LSUBROT"> F  </i>
     <i name="WEIMIN">      0.00000000</i>
     <i name="EBREAK">      0.00000000</i>
     <i name="DEPER">      0.30000000</i>
     <i type="int" name="NRMM">     4</i>
     <i name="TIME">      0.40000000</i>
    </separator>
   </separator>
   <separator name="electronic mixer" >
    <i name="AMIX">      0.40000000</i>
    <i name="BMIX">      1.00000000</i>
    <i name="AMIN">      0.10000000</i>
    <i name="AMIX_MAG">      1.60000000</i>
    <i name="BMIX_MAG">      1.00000000</i>
    <separator name="electronic mixer details" >
     <i type="int" name="IMIX">     4</i>
     <i type="logical" name="MIXFIRST"> F  </i>
     <i type="int" name="MAXMIX">   -45</i>
     <i name="WC">    100.00000000</i>
     <i type="int" name="INIMIX">     1</i>
     <i type="int" name="MIXPRE">     1</i>
     <i type="int" name="MREMOVE">     5</i>
    </separator>
   </separator>
   <separator name="electronic dipolcorrection" >
    <i type="logical" name="LDIPOL"> F  </i>
    <i type="logical" name="LMONO"> F  </i>
    <i type="int" name="IDIPOL">     0</i>
    <i name="EPSILON">      1.00000000</i>
    <v name="DIPOL">   -100.00000000   -100.00000000   -100.00000000</v>
    <i name="EFIELD">      0.00000000</i>
   </separator>
  </separator>
  <separator name="grids" >
   <i type="int" name="NGX">    70</i>
   <i type="int" name="NGY">    70</i>
   <i type="int" name="NGZ">    70</i>
   <i type="int" name="NGXF">   140</i>
   <i type="int" name="NGYF">   140</i>
   <i type="int" name="NGZF">   140</i>
   <i type="logical" name="ADDGRID"> F  </i>
  </separator>
  <separator name="ionic" >
   <i type="int" name="NSW">     0</i>
   <i type="int" name="IBRION">    -1</i>
   <i type="int" name="MDALGO">     0</i>
   <i type="int" name="ISIF">     2</i>
   <i name="PSTRESS">      0.00000000</i>
   <i name="EDIFFG">      0.00001000</i>
   <i type="int" name="NFREE">     0</i>
   <i name="POTIM">      0.50000000</i>
   <i name="SMASS">     -3.00000000</i>
   <i name="SCALEE">      1.00000000</i>
  </separator>
  <separator name="ionic md" >
   <i name="TEBEG">      0.00010000</i>
   <i name="TEEND">      0.00010000</i>
   <i type="int" name="NBLOCK">     1</i>
   <i type="int" name="KBLOCK">     1</i>
   <i type="int" name="NPACO">   256</i>
   <i name="APACO">     16.00000000</i>
  </separator>
  <separator name="symmetry" >
   <i type="int" name="ISYM">     2</i>
   <i name="SYMPREC">      0.00001000</i>
  </separator>
  <separator name="dos" >
   <i type="int" name="LORBIT">     0</i>
   <v name="RWIGS">     -1.00000000</v>
   <i type="int" name="NEDOS">   301</i>
   <i name="EMIN">     10.00000000</i>
   <i name="EMAX">    -10.00000000</i>
   <i name="EFERMI">      0.00000000</i>
  </separator>
  <separator name="writing" >
   <i type="int" name="NWRITE">     2</i>
   <i type="logical" name="LWAVE"> F  </i>
   <i type="logical" name="LDOWNSAMPLE"> F  </i>
   <i type="logical" name="LCHARG"> T  </i>
   <i type="logical" name="LPARD"> F  </i>
   <i type="logical" name="LVTOT"> F  </i>
   <i type="logical" name="LVHAR"> F  </i>
   <i type="logical" name="LELF"> F  </i>
   <i type="logical" name="LOPTICS"> F  </i>
   <v name="STM">      0.00000000      0.00000000      0.00000000      0.00000000      0.00000000      0.00000000      0.00000000</v>
  </separator>
  <separator name="performance" >
   <i type="int" name="NPAR">     8</i>
   <i type="int" name="NSIM">     8</i>
   <i type="int" name="NBLK">    -1</i>
   <i type="logical" name="LPLANE"> T  </i>
   <i type="logical" name="LSCALAPACK"> T  </i>
   <i type="logical" name="LSCAAWARE"> F  </i>
   <i type="logical" name="LSCALU"> F  </i>
   <i type="logical" name="LASYNC"> F  </i>
   <i type="logical" name="LORBITALREAL"> F  </i>
  </separator>
  <separator name="miscellaneous" >
   <i type="int" name="IDIOT">     3</i>
   <i type="int" name="PHON_NSTRUCT">    -1</i>
   <i type="logical" name="LMUSIC"> F  </i>
   <v name="POMASS">     26.98100000</v>
   <v name="DARWINR">      0.00000000</v>
   <v name="DARWINV">      1.00000000</v>
   <i type="logical" name="LCORR"> T  </i>
  </separator>
  <i type="logical" name="GGA_COMPAT"> T  </i>
  <i type="logical" name="LBERRY"> F  </i>
  <i type="int" name="ICORELEVEL">     0</i>
  <i type="logical" name="LDAU"> F  </i>
  <i type="int" name="I_CONSTRAINED_M">     0</i>
  <separator name="electronic exchange-correlation" >
   <i type="string" name="GGA">PE</i>
   <i type="int" name="VOSKOWN">     0</i>
   <i type="logical" name="LHFCALC"> F  </i>
   <i type="string" name="PRECFOCK"></i>
   <i type="logical" name="LSYMGRAD"> F  </i>
   <i type="logical" name="LHFONE"> F  </i>
   <i type="logical" name="LRHFCALC"> F  </i>
   <i type="logical" name="LTHOMAS"> F  </i>
   <i type="logical" name="LMODELHF"> F  </i>
   <i type="logical" name="LFOCKACE"> F  </i>
   <i name="ENCUT4O">     -1.00000000</i>
   <i type="int" name="EXXOEP">     0</i>
   <i type="int" name="FOURORBIT">     0</i>
   <i name="AEXX">      0.00000000</i>
   <i name="HFALPHA">      0.00000000</i>
   <i name="MCALPHA">      0.00000000</i>
   <i name="ALDAX">      1.00000000</i>
   <i name="AGGAX">      1.00000000</i>
   <i name="ALDAC">      1.00000000</i>
   <i name="AGGAC">      1.00000000</i>
   <i type="int" name="NKREDX">     1</i>
   <i type="int" name="NKREDY">     1</i>
   <i type="int" name="NKREDZ">     1</i>
   <i type="logical" name="SHIFTRED"> F  </i>
   <i type="logical" name="ODDONLY"> F  </i>
   <i type="logical" name="EVENONLY"> F  </i>
   <i type="int" name="LMAXFOCK">     0</i>
   <i type="int" name="NMAXFOCKAE">     0</i>
   <i type="logical" name="LFOCKAEDFT"> F  </i>
   <i name="HFSCREEN">      0.00000000</i>
   <i name="HFSCREENC">      0.00000000</i>
   <i type="int" name="NBANDSGWLOW">     0</i>
  </separator>
  <separator name="vdW DFT" >
   <i type="logical" name="LUSE_VDW"> F  </i>
   <i name="Zab_VDW">     -0.84910000</i>
   <i name="PARAM1">      0.12340000</i>
   <i name="PARAM2">      1.00000000</i>
   <i name="PARAM3">      0.00000000</i>
  </separator>
  <separator name="model GW" >
   <i type="int" name="MODEL_GW">     0</i>
   <i name="MODEL_EPS0">      9.88389577</i>
   <i name="MODEL_ALPHA">      1.00000000</i>
  </separator>
  <separator name="linear response parameters" >
   <i type="logical" name="LEPSILON"> F  </i>
   <i type="logical" name="LRPA"> F  </i>
   <i type="logical" name="LNABLA"> F  </i>
   <i type="logical" name="LVEL"> F  </i>
   <i type="int" name="KINTER">     0</i>
   <i name="CSHIFT">      0.10000000</i>
   <i name="OMEGAMAX">     -1.00000000</i>
   <i name="DEG_THRESHOLD">      0.00200000</i>
   <i name="RTIME">     -0.10000000</i>
   <i name="WPLASMAI">      0.00000000</i>
   <v name="DFIELD">      0.00000000      0.00000000      0.00000000</v>
   <v name="WPLASMA">      0.00000000      0.00000000      0.00000000      0.00000000      0.00000000      0.00000000      0.00000000      0.00000000      0.00000000</v>
  </separator>
  <separator name="orbital magnetization" >
   <i type="logical" name="NUCIND"> F  </i>
   <v name="MAGPOS">      0.00000000      0.00000000      0.00000000</v>
   <i type="logical" name="LNICSALL"> T  </i>
   <i type="logical" name="ORBITALMAG"> F  </i>
   <i type="logical" name="LMAGBLOCH"> F  </i>
   <i type="logical" name="LCHIMAG"> F  </i>
   <i type="logical" name="LGAUGE"> T  </i>
   <i type="int" name="MAGATOM">     0</i>
   <v name="MAGDIPOL">      0.00000000      0.00000000      0.00000000</v>
   <v name="AVECCONST">      0.00000000      0.00000000      0.00000000</v>
  </separator>
  <separator name="response functions" >
   <i type="logical" name="LFINITE_TEMPERATURE"> F  </i>
   <i type="logical" name="LADDER"> F  </i>
   <i type="logical" name="LRPAFORCE"> F  </i>
   <i type="logical" name="LFXC"> F  </i>
   <i type="logical" name="LHARTREE"> T  </i>
   <i type="int" name="IBSE">     0</i>
   <v type="int" name="KPOINT">    -1     0     0     0</v>
   <i type="logical" name="LTCTC"> F  </i>
   <i type="logical" name="LTCTE"> F  </i>
   <i type="logical" name="LTETE"> F  </i>
   <i type="logical" name="LTRIPLET"> F  </i>
   <i type="logical" name="LFXCEPS"> F  </i>
   <i type="logical" name="LFXHEG"> F  </i>
   <i type="int" name="NATURALO">     2</i>
   <i type="logical" name="LHOLEGF"> F  </i>
   <i type="logical" name="L2ORDER"> F  </i>
   <i type="logical" name="LDMP1"> F  </i>
   <i type="logical" name="LMP2LT"> F  </i>
   <i type="logical" name="LSMP2LT"> F  </i>
   <i type="logical" name="LGWLF"> F  </i>
   <i name="ENCUTGW">     -2.00000000</i>
   <i name="ENCUTGWSOFT">     -2.00000000</i>
   <i name="ENCUTLF">     -1.00000000</i>
   <i type="logical" name="LESF_SPLINES"> F  </i>
   <i type="int" name="LMAXMP2">    -1</i>
   <i name="SCISSOR">      0.00000000</i>
   <i type="int" name="NOMEGA">     0</i>
   <i type="int" name="NOMEGAR">     0</i>
   <i type="int" name="NBANDSGW">    -1</i>
   <i type="int" name="NBANDSO">    -1</i>
   <i type="int" name="NBANDSV">    -1</i>
   <i type="int" name="NELM">   200</i>
   <i type="int" name="NELMHF">     1</i>
   <i type="int" name="DIM">     3</i>
   <i type="int" name="IESPILON">     4</i>
   <i type="int" name="ANTIRES">     0</i>
   <i name="OMEGAMAX">    -30.00000000</i>
   <i name="OMEGAMIN">    -30.00000000</i>
   <i name="OMEGATL">   -200.00000000</i>
   <i type="int" name="OMEGAGRID">     0</i>
   <i name="CSHIFT">     -0.10000000</i>
   <i type="logical" name="LSELFENERGY"> F  </i>
   <i type="logical" name="LSPECTRAL"> F  </i>
   <i type="logical" name="LSPECTRALGW"> F  </i>
   <i type="logical" name="LSINGLES"> F  </i>
   <i type="logical" name="LFERMIGW"> F  </i>
   <i type="logical" name="ODDONLYGW"> F  </i>
   <i type="logical" name="EVENONLYGW"> F  </i>
   <i type="int" name="NKREDLFX">     1</i>
   <i type="int" name="NKREDLFY">     1</i>
   <i type="int" name="NKREDLFZ">     1</i>
   <i type="int" name="MAXMEM">  2800</i>
   <i type="int" name="TELESCOPE">     0</i>
   <i type="int" name="NTAUPAR">    -1</i>
   <i type="int" name="NOMEGAPAR">    -1</i>
   <i name="DAMP_NEWTON">      0.80000001</i>
   <i name="LAMBDA">      1.00000000</i>
  </separator>
  <separator name="External order field" >
   <i name="OFIELD_KAPPA">      0.00000000</i>
   <v name="OFIELD_K">      0.00000000      0.00000000      0.00000000</v>
   <i name="OFIELD_Q6_NEAR">      0.00000000</i>
   <i name="OFIELD_Q6_FAR">      0.00000000</i>
   <i name="OFIELD_A">      0.00000000</i>
  </separator>
 </parameters>
 <atominfo>
  <atoms>      32 </atoms>
  <types>       1 </types>
  <array name="atoms" >
   <dimension dim="1">ion</dimension>
   <field type="string">element</field>
   <field type="int">atomtype</field>
   <set>
    <rc><c>Al</c><c>   1</c></rc>
    <rc><c>Al</c><c>   1</c></rc>
    <rc><c>Al</c><c>   1</c></rc>
    <rc><c>Al</c><c>   1</c></rc>
    <rc><c>Al</c><c>   1</c></rc>
    <rc><c>Al</c><c>   1</c></rc>
    <rc><c>Al</c><c>   1</c></rc>
    <rc><c>Al</c><c>   1</c></rc>
    <rc><c>Al</c><c>   1</c></rc>
    <rc><c>Al</c><c>   1</c></rc>
    <rc><c>Al</c><c>   1</c></rc>
    <rc><c>Al</c><c>   1</c></rc>
    <rc><c>Al</c><c>   1</c></rc>
    <rc><c>Al</c><c>   1</c></rc>
    <rc><c>Al</c><c>   1</c></rc>
    <rc><c>Al</c><c>   1</c></rc>
    <rc><c>Al</c><c>   1</c></rc>
    <rc><c>Al</c><c>   1</c></rc>
    <rc><c>Al</c><c>   1</c></rc>
    <rc><c>Al</c><c>   1</c></rc>
    <rc><c>Al</c><c>   1</c></rc>
    <rc><c>Al</c><c>   1</c></rc>
    <rc><c>Al</c><c>   1</c></rc>
    <rc><c>Al</c><c>   1</c></rc>
    <rc><c>Al</c><c>   1</c></rc>
    <rc><c>Al</c><c>   1</c></rc>
    <rc><c>Al</c><c>   1</c></rc>
    <rc><c>Al</c><c>   1</c></rc>
    <rc><c>Al</c><c>   1</c></rc>
    <rc><c>Al</c><c>   1</c></rc>
    <rc><c>Al</c><c>   1</c></rc>
    <rc><c>Al</c><c>   1</c></rc>
   </set>
  </array>
  <array name="atomtypes" >
   <dimension dim="1">type</dimension>
   <field type="int">atomspertype</field>
   <field type="string">element</field>
   <field>mass</field>
   <field>valence</field>
   <field type="string">pseudopotential</field>
   <set>
    <rc><c>  32</c><c>Al</c><c>     26.98100000</c><c>      3.00000000</c><c>  PAW_PBE Al 04Jan2001                  </c></rc>
   </set>
  </array>
 </atominfo>
 <structure name="initialpos" >
  <crystal>
   <varray name="basis" >
    <v>       8.07809510       0.00000000       0.00000000 </v>
    <v>       0.00000000       8.07809510       0.00000000 </v>
    <v>       0.00000000       0.00000000       8.07809510 </v>
   </varray>
   <i name="volume">    527.14110776 </i>
   <varray name="rec_basis" >
    <v>       0.12379156       0.00000000       0.00000000 </v>
    <v>       0.00000000       0.12379156       0.00000000 </v>
    <v>       0.00000000       0.00000000       0.12379156 </v>
   </varray>
  </crystal>
  <varray name="positions" >
   <v>       0.00955818       0.99006748       0.99975023 </v>
   <v>       0.00606352       0.24899124       0.25128701 </v>
   <v>       0.26156416       0.98210464       0.24025836 </v>
   <v>       0.23617977       0.24608713       0.98675566 </v>
   <v>       0.98530570       0.00487368       0.48763953 </v>
   <v>       0.00348894       0.24505932       0.75359372 </v>
   <v>       0.23177246       0.99547119       0.72337648 </v>
   <v>       0.23876000       0.26303400       0.50472291 </v>
   <v>       0.00095125       0.50499012       0.00367840 </v>
   <v>       0.98852191       0.75535958       0.23200546 </v>
   <v>       0.22296727       0.49681977       0.24931311 </v>
   <v>       0.27061763       0.74965982       0.01216425 </v>
   <v>       0.99552308       0.51574392       0.50880360 </v>
   <v>       0.00939353       0.74825538       0.76320939 </v>
   <v>       0.25583994       0.49938541       0.75589417 </v>
   <v>       0.24665024       0.74963485       0.48665722 </v>
   <v>       0.50876973       0.00539260       0.99862277 </v>
   <v>       0.48215249       0.26711507       0.26624611 </v>
   <v>       0.75805349       0.00339533       0.24914689 </v>
   <v>       0.76359687       0.23766327       0.99640123 </v>
   <v>       0.50992832       0.98496612       0.49736577 </v>
   <v>       0.51078830       0.24121674       0.74814554 </v>
   <v>       0.74831372       0.98839905       0.75922562 </v>
   <v>       0.74508697       0.25285990       0.48098159 </v>
   <v>       0.50423398       0.48029909       0.99200684 </v>
   <v>       0.51920011       0.75530270       0.22963361 </v>
   <v>       0.75896332       0.51045464       0.24122534 </v>
   <v>       0.74197022       0.74340430       0.98596788 </v>
   <v>       0.49168476       0.51559032       0.50479102 </v>
   <v>       0.48391920       0.74596989       0.75260427 </v>
   <v>       0.75062567       0.48720505       0.75043438 </v>
   <v>       0.75017131       0.75260048       0.49749361 </v>
  </varray>
 </structure>
 <calculation>
  <scstep>
   <time name="dav">   46.69   47.01</time>
   <time name="total">   46.75   47.07</time>
   <energy>
    <i name="alphaZ">     -6.52466918 </i>
    <i name="ewald">  -2347.25360044 </i>
    <i name="hartreedc">     -5.93963402 </i>
    <i name="XCdc">   -839.47944595 </i>
    <i name="pawpsdc">   2118.40502803 </i>
    <i name="pawaedc">  -1095.85986421 </i>
    <i name="eentropy">     -0.00821355 </i>
    <i name="bandstr">    600.91447539 </i>
    <i name="atom">   1713.23359074 </i>
    <i name="e_fr_energy">    137.48766682 </i>
    <i name="e_wo_entrp">    137.49588037 </i>
    <i name="e_0_energy">    137.49177359 </i>
   </energy>
  </scstep>
  <scstep>
   <time name="dav">   53.00   53.36</time>
   <time name="total">   53.01   53.37</time>
   <energy>
    <i name="e_fr_energy">   -106.54403034 </i>
    <i name="e_wo_entrp">   -106.52854163 </i>
    <i name="e_0_energy">   -106.53628599 </i>
   </energy>
  </scstep>
  <scstep>
   <time name="dav">   56.28   56.66</time>
   <time name="total">   56.29   56.67</time>
   <energy>
    <i name="e_fr_energy">   -119.42897340 </i>
    <i name="e_wo_entrp">   -119.41283545 </i>
    <i name="e_0_energy">   -119.42090442 </i>
   </energy>
  </scstep>
  <scstep>
   <time name="dav">   54.79   55.16</time>
   <time name="total">   54.80   55.17</time>
   <energy>
    <i name="e_fr_energy">   -119.66741023 </i>
    <i name="e_wo_entrp">   -119.65131372 </i>
    <i name="e_0_energy">   -119.65936198 </i>
   </energy>
  </scstep>
  <scstep>
   <time name="dav">   54.96   55.35</time>
   <time name="total">   57.29   57.69</time>
   <energy>
    <i name="e_fr_energy">   -119.66999783 </i>
    <i name="e_wo_entrp">   -119.65390511 </i>
    <i name="e_0_energy">   -119.66195147 </i>
   </energy>
  </scstep>
  <scstep>
   <time name="dav">   59.19   59.60</time>
   <time name="total">   62.31   62.73</time>
   <energy>
    <i name="e_fr_energy">   -119.06965193 </i>
    <i name="e_wo_entrp">   -119.05349962 </i>
    <i name="e_0_energy">   -119.06157578 </i>
   </energy>
  </scstep>
  <scstep>
   <time name="dav">   57.93   58.31</time>
   <time name="total">   61.01   61.42</time>
   <energy>
    <i name="e_fr_energy">   -118.80179596 </i>
    <i name="e_wo_entrp">   -118.78584587 </i>
    <i name="e_0_energy">   -118.79382092 </i>
   </energy>
  </scstep>
  <scstep>
   <time name="dav">   59.12   59.50</time>
   <time name="total">   62.19   62.60</time>
   <energy>
    <i name="e_fr_energy">   -118.76394918 </i>
    <i name="e_wo_entrp">   -118.74792698 </i>
    <i name="e_0_energy">   -118.75593808 </i>
   </energy>
  </scstep>
  <scstep>
   <time name="dav">   57.90   58.28</time>
   <time name="total">   60.99   61.39</time>
   <energy>
    <i name="e_fr_energy">   -118.76244553 </i>
    <i name="e_wo_entrp">   -118.74637020 </i>
    <i name="e_0_energy">   -118.75440786 </i>
   </energy>
  </scstep>
  <scstep>
   <time name="dav">   60.07   60.45</time>
   <time name="total">   63.17   63.56</time>
   <energy>
    <i name="e_fr_energy">   -118.76235667 </i>
    <i name="e_wo_entrp">   -118.74626415 </i>
    <i name="e_0_energy">   -118.75431041 </i>
   </energy>
  </scstep>
  <scstep>
   <time name="dav">   59.31   59.70</time>
   <time name="total">   62.39   62.81</time>
   <energy>
    <i name="e_fr_energy">   -118.76235622 </i>
    <i name="e_wo_entrp">   -118.74626481 </i>
    <i name="e_0_energy">   -118.75431051 </i>
   </energy>
  </scstep>
  <scstep>
   <time name="dav">   40.04   40.30</time>
   <time name="total">   40.12   40.39</time>
   <energy>
    <i name="alphaZ">     -6.52466918 </i>
    <i name="ewald">  -2347.25360044 </i>
    <i name="hartreedc">     -7.08974370 </i>
    <i name="XCdc">   -835.89380271 </i>
    <i name="pawpsdc">   2118.40502803 </i>
    <i name="pawaedc">  -1095.85986421 </i>
    <i name="eentropy">     -0.01609216 </i>
    <i name="bandstr">    342.23679755 </i>
    <i name="atom">   1713.23359074 </i>
    <i name="e_fr_energy">   -118.76235609 </i>
    <i name="e_wo_entrp">   -118.74626393 </i>
    <i name="e_0_energy">   -118.75431001 </i>
   </energy>
  </scstep>
  <structure>
   <crystal>
    <varray name="basis" >
     <v>       8.07809510       0.00000000       0.00000000 </v>
     <v>       0.00000000       8.07809510       0.00000000 </v>
     <v>       0.00000000       0.00000000       8.07809510 </v>
    </varray>
    <i name="volume">    527.14110776 </i>
    <varray name="rec_basis" >
     <v>       0.12379156       0.00000000       0.00000000 </v>
     <v>       0.00000000       0.12379156       0.00000000 </v>
     <v>       0.00000000       0.00000000       0.12379156 </v>
    </varray>
   </crystal>
   <varray name="positions" >
    <v>       0.00955818       0.99006748       0.99975023 </v>
    <v>       0.00606352       0.24899124       0.25128701 </v>
    <v>       0.26156416       0.98210464       0.24025836 </v>
    <v>       0.23617977       0.24608713       0.98675566 </v>
    <v>       0.98530570       0.00487368       0.48763953 </v>
    <v>       0.00348894       0.24505932       0.75359372 </v>
    <v>       0.23177246       0.99547119       0.72337648 </v>
    <v>       0.23876000       0.26303400       0.50472291 </v>
    <v>       0.00095125       0.50499012       0.00367840 </v>
    <v>       0.98852191       0.75535958       0.23200546 </v>
    <v>       0.22296727       0.49681977       0.24931311 </v>
    <v>       0.27061763       0.74965982       0.01216425 </v>
    <v>       0.99552308       0.51574392       0.50880360 </v>
    <v>       0.00939353       0.74825538       0.76320939 </v>
    <v>       0.25583994       0.49938541       0.75589417 </v>
    <v>       0.24665024       0.74963485       0.48665722 </v>
    <v>       0.50876973       0.00539260       0.99862277 </v>
    <v>       0.48215249       0.26711507       0.26624611 </v>
    <v>       0.75805349       0.00339533       0.24914689 </v>
    <v>       0.76359687       0.23766327       0.99640123 </v>
    <v>       0.50992832       0.98496612       0.49736577 </v>
    <v>       0.51078830       0.24121674       0.74814554 </v>
    <v>       0.74831372       0.98839905       0.75922562 </v>
    <v>       0.74508697       0.25285990       0.48098159 </v>
    <v>       0.50423398       0.48029909       0.99200684 </v>
    <v>       0.51920011       0.75530270       0.22963361 </v>
    <v>       0.75896332       0.51045464       0.24122534 </v>
    <v>       0.74197022       0.74340430       0.98596788 </v>
    <v>       0.49168476       0.51559032       0.50479102 </v>
    <v>       0.48391920       0.74596989       0.75260427 </v>
    <v>       0.75062567       0.48720505       0.75043438 </v>
    <v>       0.75017131       0.75260048       0.49749361 </v>
   </varray>
  </structure>
  <varray name="forces" >
   <v>      -0.07617612       0.23744183      -0.11349345 </v>
   <v>      -0.16670838      -0.12905173      -0.15592807 </v>
   <v>      -0.16382790       0.84823577       0.42510859 </v>
   <v>       0.64435494      -0.14955388       0.39623274 </v>
   <v>       0.43200024      -0.13052920       0.36507493 </v>
   <v>      -0.48989385       0.15643683      -0.39642856 </v>
   <v>       0.63060062       0.13136382       0.42142268 </v>
   <v>       0.24668756      -0.32030196      -0.02203191 </v>
   <v>      -0.08086486      -0.21500222      -0.42731404 </v>
   <v>       0.34127337      -0.03097387       0.54868967 </v>
   <v>       0.80793114       0.28443114       0.02833594 </v>
   <v>      -0.49809817      -0.34350422      -0.52802696 </v>
   <v>      -0.06347177      -0.34785461      -0.07843921 </v>
   <v>      -0.18752753      -0.14738427      -0.40309316 </v>
   <v>      -0.29287040      -0.06292293      -0.07396162 </v>
   <v>      -0.12788691       0.05183635       0.04236198 </v>
   <v>      -0.32077259       0.20111603      -0.00091556 </v>
   <v>       0.18045992      -0.36449399      -0.47544706 </v>
   <v>      -0.43957786       0.07148092      -0.39732918 </v>
   <v>      -0.16931948       0.30253666       0.30092813 </v>
   <v>      -0.37984079       0.48059409      -0.00232418 </v>
   <v>      -0.34910001      -0.09711454      -0.29835305 </v>
   <v>       0.24228730       0.16738886      -0.55166278 </v>
   <v>      -0.00332281       0.20640576       0.47192920 </v>
   <v>      -0.07416021       0.17176676       0.42610751 </v>
   <v>      -0.24275308      -0.39552475       0.70206205 </v>
   <v>      -0.36767694      -0.51661554       0.24860175 </v>
   <v>       0.24829911      -0.05825938      -0.05370363 </v>
   <v>       0.25188983      -0.27749738      -0.28770500 </v>
   <v>       0.37861622       0.25608750      -0.12477106 </v>
   <v>       0.01740145       0.24717430      -0.20046764 </v>
   <v>       0.07204797      -0.22771214       0.21454096 </v>
  </varray>
  <varray name="stress" >
   <v>      11.24155219       0.28854488       0.29665423 </v>
   <v>       0.28854487      11.58387746      -0.29318167 </v>
   <v>       0.29665422      -0.29318167      13.54329219 </v>
  </varray>
  <energy>
   <i name="e_fr_energy">   -118.76235609 </i>
   <i name="e_wo_entrp">   -118.74626393 </i>
   <i name="e_0_energy">   -118.75431001 </i>
  </energy>
  <time name="totalsc">  751.66  756.71</time>
  <eigenvalues>
   <array>
    <dimension dim="1">band</dimension>
    <dimension dim="2">kpoint</dimension>
    <dimension dim="3">spin</dimension>
    <field>eigene</field>
    <field>occ</field>
    <set>
     <set comment="spin 1">
      <set comment="kpoint 1">
       <r>   -3.1638    1.0000 </r>
       <r>   -1.0569    1.0000 </r>
       <r>   -0.9935    1.0000 </r>
       <r>   -0.9337    1.0000 </r>
       <r>   -0.9200    1.0000 </r>
       <r>   -0.8402    1.0000 </r>
       <r>   -0.7376    1.0000 </r>
       <r>    1.0731    1.0000 </r>
       <r>    1.1298    1.0000 </r>
       <r>    1.1718    1.0000 </r>
       <r>    1.1788    1.0000 </r>
       <r>    1.2422    1.0000 </r>
       <r>    1.2767    1.0000 </r>
       <r>    1.2982    1.0000 </r>
       <r>    1.3381    1.0000 </r>
       <r>    1.4475    1.0000 </r>
       <r>    1.4982    1.0000 </r>
       <r>    1.5187    1.0000 </r>
       <r>    1.5945    1.0000 </r>
       <r>    3.3385    1.0000 </r>
       <r>    3.3796    1.0000 </r>
       <r>    3.4003    1.0000 </r>
       <r>    3.4116    1.0000 </r>
       <r>    3.6078    1.0000 </r>
       <r>    3.6283    1.0000 </r>
       <r>    3.6493    1.0000 </r>
       <r>    3.6862    1.0000 </r>
       <r>    5.0674    1.0000 </r>
       <r>    5.0703    1.0000 </r>
       <r>    5.0870    1.0000 </r>
       <r>    6.3265    1.0000 </r>
       <r>    6.3471    1.0000 </r>
       <r>    6.3614    1.0000 </r>
       <r>    6.9269    1.0000 </r>
       <r>    6.9534    1.0000 </r>
       <r>    6.9878    1.0000 </r>
       <r>    7.0422    1.0000 </r>
       <r>    7.0602    1.0000 </r>
       <r>    7.1223    1.0000 </r>
       <r>    7.1421    1.0000 </r>
       <r>    7.2190    1.0000 </r>
       <r>    7.3030    1.0000 </r>
       <r>    7.3342    1.0000 </r>
       <r>    7.3669    1.0000 </r>
       <r>    7.4094    1.0000 </r>
       <r>    7.9647    0.9071 </r>
       <r>    8.0856    0.0181 </r>
       <r>    8.1017    0.0054 </r>
       <r>    8.1797    0.0000 </r>
       <r>    8.2457    0.0000 </r>
       <r>    8.2935    0.0000 </r>
       <r>    8.9729    0.0000 </r>
       <r>    8.9833    0.0000 </r>
       <r>    9.0069    0.0000 </r>
       <r>    9.0194    0.0000 </r>
       <r>    9.0488    0.0000 </r>
       <r>    9.0727    0.0000 </r>
       <r>    9.1386    0.0000 </r>
       <r>    9.1565    0.0000 </r>
       <r>    9.1761    0.0000 </r>
       <r>    9.2211    0.0000 </r>
       <r>    9.2584    0.0000 </r>
       <r>    9.2685    0.0000 </r>
       <r>    9.3053    0.0000 </r>
       <r>    9.3419    0.0000 </r>
       <r>    9.3629    0.0000 </r>
       <r>    9.4126    0.0000 </r>
       <r>    9.4360    0.0000 </r>
       <r>    9.4821    0.0000 </r>
       <r>   10.5805    0.0000 </r>
       <r>   10.6118    0.0000 </r>
       <r>   10.6398    0.0000 </r>
      </set>
      <set comment="kpoint 2">
       <r>   -3.1361    1.0000 </r>
       <r>   -1.3998    1.0000 </r>
       <r>   -0.9837    1.0000 </r>
       <r>   -0.9097    1.0000 </r>
       <r>   -0.8617    1.0000 </r>
       <r>   -0.7975    1.0000 </r>
       <r>   -0.3704    1.0000 </r>
       <r>    0.7387    1.0000 </r>
       <r>    0.7914    1.0000 </r>
       <r>    0.8570    1.0000 </r>
       <r>    0.9107    1.0000 </r>
       <r>    1.2541    1.0000 </r>
       <r>    1.3270    1.0000 </r>
       <r>    1.3483    1.0000 </r>
       <r>    1.4279    1.0000 </r>
       <r>    1.7246    1.0000 </r>
       <r>    1.8424    1.0000 </r>
       <r>    1.9224    1.0000 </r>
       <r>    1.9372    1.0000 </r>
       <r>    2.9477    1.0000 </r>
       <r>    3.0291    1.0000 </r>
       <r>    3.0736    1.0000 </r>
       <r>    3.1397    1.0000 </r>
       <r>    3.9342    1.0000 </r>
       <r>    4.0108    1.0000 </r>
       <r>    4.0517    1.0000 </r>
       <r>    4.1229    1.0000 </r>
       <r>    4.5952    1.0000 </r>
       <r>    5.0930    1.0000 </r>
       <r>    5.1015    1.0000 </r>
       <r>    6.3635    1.0000 </r>
       <r>    6.3819    1.0000 </r>
       <r>    6.5385    1.0000 </r>
       <r>    6.5836    1.0000 </r>
       <r>    6.6220    1.0000 </r>
       <r>    6.6852    1.0000 </r>
       <r>    6.7907    1.0000 </r>
       <r>    6.8543    1.0000 </r>
       <r>    6.8927    1.0000 </r>
       <r>    7.1025    1.0000 </r>
       <r>    7.1763    1.0000 </r>
       <r>    7.2059    1.0000 </r>
       <r>    7.2903    1.0000 </r>
       <r>    7.6390    1.0000 </r>
       <r>    7.6793    1.0000 </r>
       <r>    7.9389    0.9800 </r>
       <r>    7.9860    0.7651 </r>
       <r>    8.3072    0.0000 </r>
       <r>    8.3654    0.0000 </r>
       <r>    8.4195    0.0000 </r>
       <r>    8.4757    0.0000 </r>
       <r>    8.6597    0.0000 </r>
       <r>    8.7425    0.0000 </r>
       <r>    8.7719    0.0000 </r>
       <r>    8.8071    0.0000 </r>
       <r>    8.8573    0.0000 </r>
       <r>    8.9095    0.0000 </r>
       <r>    8.9501    0.0000 </r>
       <r>    9.0178    0.0000 </r>
       <r>    9.2624    0.0000 </r>
       <r>    9.2883    0.0000 </r>
       <r>    9.3096    0.0000 </r>
       <r>    9.3423    0.0000 </r>
       <r>    9.3845    0.0000 </r>
       <r>    9.4012    0.0000 </r>
       <r>    9.6770    0.0000 </r>
       <r>    9.7488    0.0000 </r>
       <r>    9.8083    0.0000 </r>
       <r>    9.8405    0.0000 </r>
       <r>   10.2464    0.0000 </r>
       <r>   10.2938    0.0000 </r>
       <r>   10.3189    0.0000 </r>
      </set>
      <set comment="kpoint 3">
       <r>   -3.1361    1.0000 </r>
       <r>   -1.3999    1.0000 </r>
       <r>   -0.9636    1.0000 </r>
       <r>   -0.9160    1.0000 </r>
       <r>   -0.8977    1.0000 </r>
       <r>   -0.7731    1.0000 </r>
       <r>   -0.3727    1.0000 </r>
       <r>    0.7460    1.0000 </r>
       <r>    0.7973    1.0000 </r>
       <r>    0.8139    1.0000 </r>
       <r>    0.9363    1.0000 </r>
       <r>    1.2748    1.0000 </r>
       <r>    1.3326    1.0000 </r>
       <r>    1.3497    1.0000 </r>
       <r>    1.4049    1.0000 </r>
       <r>    1.7716    1.0000 </r>
       <r>    1.8210    1.0000 </r>
       <r>    1.8444    1.0000 </r>
       <r>    1.9884    1.0000 </r>
       <r>    2.9734    1.0000 </r>
       <r>    3.0330    1.0000 </r>
       <r>    3.0547    1.0000 </r>
       <r>    3.1210    1.0000 </r>
       <r>    3.9638    1.0000 </r>
       <r>    4.0240    1.0000 </r>
       <r>    4.0393    1.0000 </r>
       <r>    4.1024    1.0000 </r>
       <r>    4.5867    1.0000 </r>
       <r>    5.0972    1.0000 </r>
       <r>    5.1123    1.0000 </r>
       <r>    6.3404    1.0000 </r>
       <r>    6.3747    1.0000 </r>
       <r>    6.5031    1.0000 </r>
       <r>    6.6007    1.0000 </r>
       <r>    6.6378    1.0000 </r>
       <r>    6.6854    1.0000 </r>
       <r>    6.7910    1.0000 </r>
       <r>    6.8607    1.0000 </r>
       <r>    6.9260    1.0000 </r>
       <r>    7.1170    1.0000 </r>
       <r>    7.1662    1.0000 </r>
       <r>    7.2026    1.0000 </r>
       <r>    7.2908    1.0000 </r>
       <r>    7.6581    1.0000 </r>
       <r>    7.6702    1.0000 </r>
       <r>    7.9186    0.9957 </r>
       <r>    7.9631    0.9146 </r>
       <r>    8.3067    0.0000 </r>
       <r>    8.4043    0.0000 </r>
       <r>    8.4194    0.0000 </r>
       <r>    8.4705    0.0000 </r>
       <r>    8.6697    0.0000 </r>
       <r>    8.7121    0.0000 </r>
       <r>    8.7652    0.0000 </r>
       <r>    8.7979    0.0000 </r>
       <r>    8.8600    0.0000 </r>
       <r>    8.9040    0.0000 </r>
       <r>    8.9285    0.0000 </r>
       <r>    9.0142    0.0000 </r>
       <r>    9.2671    0.0000 </r>
       <r>    9.3050    0.0000 </r>
       <r>    9.3315    0.0000 </r>
       <r>    9.3446    0.0000 </r>
       <r>    9.3759    0.0000 </r>
       <r>    9.4332    0.0000 </r>
       <r>    9.7024    0.0000 </r>
       <r>    9.7220    0.0000 </r>
       <r>    9.7690    0.0000 </r>
       <r>    9.8803    0.0000 </r>
       <r>   10.2051    0.0000 </r>
       <r>   10.3149    0.0000 </r>
       <r>   10.3468    0.0000 </r>
      </set>
      <set comment="kpoint 4">
       <r>   -3.1361    1.0000 </r>
       <r>   -1.3962    1.0000 </r>
       <r>   -1.0103    1.0000 </r>
       <r>   -0.9177    1.0000 </r>
       <r>   -0.8333    1.0000 </r>
       <r>   -0.7854    1.0000 </r>
       <r>   -0.3812    1.0000 </r>
       <r>    0.7099    1.0000 </r>
       <r>    0.7812    1.0000 </r>
       <r>    0.8866    1.0000 </r>
       <r>    0.9341    1.0000 </r>
       <r>    1.2603    1.0000 </r>
       <r>    1.3260    1.0000 </r>
       <r>    1.3440    1.0000 </r>
       <r>    1.4170    1.0000 </r>
       <r>    1.7226    1.0000 </r>
       <r>    1.8560    1.0000 </r>
       <r>    1.8964    1.0000 </r>
       <r>    1.9459    1.0000 </r>
       <r>    2.9601    1.0000 </r>
       <r>    3.0376    1.0000 </r>
       <r>    3.0569    1.0000 </r>
       <r>    3.1356    1.0000 </r>
       <r>    3.9416    1.0000 </r>
       <r>    4.0206    1.0000 </r>
       <r>    4.0418    1.0000 </r>
       <r>    4.1190    1.0000 </r>
       <r>    4.5918    1.0000 </r>
       <r>    5.0936    1.0000 </r>
       <r>    5.1070    1.0000 </r>
       <r>    6.3418    1.0000 </r>
       <r>    6.3594    1.0000 </r>
       <r>    6.5377    1.0000 </r>
       <r>    6.5685    1.0000 </r>
       <r>    6.6424    1.0000 </r>
       <r>    6.7396    1.0000 </r>
       <r>    6.7779    1.0000 </r>
       <r>    6.8530    1.0000 </r>
       <r>    6.9079    1.0000 </r>
       <r>    7.0816    1.0000 </r>
       <r>    7.1796    1.0000 </r>
       <r>    7.2084    1.0000 </r>
       <r>    7.3014    1.0000 </r>
       <r>    7.6488    1.0000 </r>
       <r>    7.6747    1.0000 </r>
       <r>    7.9434    0.9731 </r>
       <r>    7.9648    0.9069 </r>
       <r>    8.3201    0.0000 </r>
       <r>    8.3362    0.0000 </r>
       <r>    8.4332    0.0000 </r>
       <r>    8.4794    0.0000 </r>
       <r>    8.6876    0.0000 </r>
       <r>    8.7147    0.0000 </r>
       <r>    8.7630    0.0000 </r>
       <r>    8.8043    0.0000 </r>
       <r>    8.8255    0.0000 </r>
       <r>    8.9036    0.0000 </r>
       <r>    8.9541    0.0000 </r>
       <r>    9.0152    0.0000 </r>
       <r>    9.2688    0.0000 </r>
       <r>    9.2941    0.0000 </r>
       <r>    9.3128    0.0000 </r>
       <r>    9.3647    0.0000 </r>
       <r>    9.4040    0.0000 </r>
       <r>    9.4177    0.0000 </r>
       <r>    9.6391    0.0000 </r>
       <r>    9.7586    0.0000 </r>
       <r>    9.7921    0.0000 </r>
       <r>    9.8685    0.0000 </r>
       <r>   10.2272    0.0000 </r>
       <r>   10.2982    0.0000 </r>
       <r>   10.3206    0.0000 </r>
      </set>
      <set comment="kpoint 5">
       <r>   -3.0532    1.0000 </r>
       <r>   -1.8030    1.0000 </r>
       <r>   -0.9023    1.0000 </r>
       <r>   -0.8290    1.0000 </r>
       <r>   -0.7821    1.0000 </r>
       <r>   -0.7150    1.0000 </r>
       <r>    0.1680    1.0000 </r>
       <r>    0.3448    1.0000 </r>
       <r>    0.4092    1.0000 </r>
       <r>    0.4829    1.0000 </r>
       <r>    0.5202    1.0000 </r>
       <r>    1.3327    1.0000 </r>
       <r>    1.4066    1.0000 </r>
       <r>    1.4260    1.0000 </r>
       <r>    1.5046    1.0000 </r>
       <r>    2.2715    1.0000 </r>
       <r>    2.3762    1.0000 </r>
       <r>    2.4494    1.0000 </r>
       <r>    2.4779    1.0000 </r>
       <r>    2.5621    1.0000 </r>
       <r>    2.6459    1.0000 </r>
       <r>    2.6956    1.0000 </r>
       <r>    2.7615    1.0000 </r>
       <r>    3.8001    1.0000 </r>
       <r>    4.4813    1.0000 </r>
       <r>    4.5602    1.0000 </r>
       <r>    4.6006    1.0000 </r>
       <r>    4.6703    1.0000 </r>
       <r>    5.1670    1.0000 </r>
       <r>    5.1774    1.0000 </r>
       <r>    5.7974    1.0000 </r>
       <r>    5.8872    1.0000 </r>
       <r>    5.9449    1.0000 </r>
       <r>    5.9872    1.0000 </r>
       <r>    6.3478    1.0000 </r>
       <r>    6.3601    1.0000 </r>
       <r>    6.4695    1.0000 </r>
       <r>    6.4749    1.0000 </r>
       <r>    7.1738    1.0000 </r>
       <r>    7.2248    1.0000 </r>
       <r>    7.2757    1.0000 </r>
       <r>    7.3173    1.0000 </r>
       <r>    7.6109    1.0000 </r>
       <r>    7.6562    1.0000 </r>
       <r>    7.8074    1.0000 </r>
       <r>    7.9328    0.9870 </r>
       <r>    8.0221    0.3825 </r>
       <r>    8.0587    0.0911 </r>
       <r>    8.1216    0.0009 </r>
       <r>    8.2266    0.0000 </r>
       <r>    8.2725    0.0000 </r>
       <r>    8.3433    0.0000 </r>
       <r>    8.4117    0.0000 </r>
       <r>    8.4594    0.0000 </r>
       <r>    8.5202    0.0000 </r>
       <r>    8.5983    0.0000 </r>
       <r>    8.6627    0.0000 </r>
       <r>    8.7231    0.0000 </r>
       <r>    8.7737    0.0000 </r>
       <r>    9.7178    0.0000 </r>
       <r>    9.7427    0.0000 </r>
       <r>    9.8136    0.0000 </r>
       <r>    9.8633    0.0000 </r>
       <r>    9.8871    0.0000 </r>
       <r>    9.9409    0.0000 </r>
       <r>   10.0434    0.0000 </r>
       <r>   10.1074    0.0000 </r>
       <r>   10.1522    0.0000 </r>
       <r>   10.1877    0.0000 </r>
       <r>   10.2776    0.0000 </r>
       <r>   10.3388    0.0000 </r>
       <r>   10.3618    0.0000 </r>
      </set>
      <set comment="kpoint 6">
       <r>   -3.0532    1.0000 </r>
       <r>   -1.8027    1.0000 </r>
       <r>   -0.8828    1.0000 </r>
       <r>   -0.8357    1.0000 </r>
[...]
       <r>    2.7454    1.0000 </r>
       <r>    2.8039    1.0000 </r>
       <r>    2.8654    1.0000 </r>
       <r>    2.9084    1.0000 </r>
       <r>    2.9984    1.0000 </r>
       <r>    3.0708    1.0000 </r>
       <r>    3.1199    1.0000 </r>
       <r>    3.2237    1.0000 </r>
       <r>    3.2911    1.0000 </r>
       <r>    3.3410    1.0000 </r>
       <r>    3.3701    1.0000 </r>
       <r>    3.4242    1.0000 </r>
       <r>    3.4642    1.0000 </r>
       <r>    3.6027    1.0000 </r>
       <r>    3.6787    1.0000 </r>
       <r>    3.7113    1.0000 </r>
       <r>    6.3337    1.0000 </r>
       <r>    6.3851    1.0000 </r>
       <r>    6.4721    1.0000 </r>
       <r>    6.6164    1.0000 </r>
       <r>    6.6727    1.0000 </r>
       <r>    6.7358    1.0000 </r>
       <r>    7.0217    1.0000 </r>
       <r>    7.0385    1.0000 </r>
       <r>    7.0786    1.0000 </r>
       <r>    7.1072    1.0000 </r>
       <r>    7.1689    1.0000 </r>
       <r>    7.1972    1.0000 </r>
       <r>    7.3163    1.0000 </r>
       <r>    7.3776    1.0000 </r>
       <r>    7.3982    1.0000 </r>
       <r>    7.4454    1.0000 </r>
       <r>    7.4654    1.0000 </r>
       <r>    7.5120    1.0000 </r>
       <r>    7.8038    1.0000 </r>
       <r>    7.8354    1.0000 </r>
       <r>    7.8917    0.9996 </r>
       <r>    8.0641    0.0684 </r>
       <r>    8.1448    0.0001 </r>
       <r>    8.1827    0.0000 </r>
       <r>   10.3662    0.0000 </r>
       <r>   10.7275    0.0000 </r>
       <r>   10.7833    0.0000 </r>
       <r>   10.8099    0.0000 </r>
       <r>   10.9587    0.0000 </r>
       <r>   10.9880    0.0000 </r>
       <r>   11.0354    0.0000 </r>
       <r>   11.0490    0.0000 </r>
       <r>   11.0691    0.0000 </r>
       <r>   11.1036    0.0000 </r>
       <r>   11.1463    0.0000 </r>
       <r>   11.1635    0.0000 </r>
       <r>   11.2315    0.0000 </r>
       <r>   11.3417    0.0000 </r>
       <r>   11.3714    0.0000 </r>
       <r>   11.4611    0.0000 </r>
      </set>
     </set>
    </set>
   </array>
  </eigenvalues>
  <separator name="orbital magnetization" >
   <v name="MAGDIPOLOUT">      0.00000000      0.00000000      0.00000000</v>
  </separator>
  <dos>
   <i name="efermi">      8.01152711 </i>
   <total>
    <array>
     <dimension dim="1">gridpoints</dimension>
     <dimension dim="2">spin</dimension>
     <field>energy</field>
     <field>total</field>
     <field>integrated</field>
     <set>
      <set comment="spin 1">
       <r>    -3.9091     0.0000     0.0000 </r>
       <r>    -3.8544     0.0000     0.0000 </r>
       <r>    -3.7998     0.0000     0.0000 </r>
       <r>    -3.7451     0.0000     0.0000 </r>
       <r>    -3.6905     0.0000     0.0000 </r>
       <r>    -3.6358     0.0000     0.0000 </r>
       <r>    -3.5812     0.0000     0.0000 </r>
       <r>    -3.5265     0.0000     0.0000 </r>
       <r>    -3.4719     0.0000     0.0000 </r>
       <r>    -3.4172     0.0000     0.0000 </r>
       <r>    -3.3626     0.0000     0.0000 </r>
       <r>    -3.3079     0.0000     0.0000 </r>
       <r>    -3.2533     0.0004     0.0000 </r>
       <r>    -3.1986     0.0228     0.0013 </r>
       <r>    -3.1440     0.2484     0.0148 </r>
       <r>    -3.0893     0.7329     0.0549 </r>
       <r>    -3.0347     1.1722     0.1190 </r>
       <r>    -2.9800     1.5362     0.2029 </r>
       <r>    -2.9254     1.5400     0.2871 </r>
       <r>    -2.8707     2.1524     0.4047 </r>
       <r>    -2.8161     2.0967     0.5193 </r>
       <r>    -2.7614     2.3500     0.6477 </r>
       <r>    -2.7068     2.2766     0.7721 </r>
       <r>    -2.6521     3.0586     0.9393 </r>
       <r>    -2.5975     3.1232     1.1100 </r>
       <r>    -2.5428     2.5284     1.2481 </r>
       <r>    -2.4882     2.2734     1.3724 </r>
       <r>    -2.4335     3.2695     1.5511 </r>
       <r>    -2.3789     3.4885     1.7417 </r>
       <r>    -2.3242     3.4683     1.9312 </r>
       <r>    -2.2696     3.1547     2.1036 </r>
       <r>    -2.2149     3.3384     2.2861 </r>
       <r>    -2.1603     3.7918     2.4933 </r>
       <r>    -2.1056     3.5327     2.6864 </r>
       <r>    -2.0510     4.3112     2.9220 </r>
       <r>    -1.9963     4.3740     3.1610 </r>
       <r>    -1.9417     4.2543     3.3935 </r>
       <r>    -1.8870     3.6709     3.5941 </r>
       <r>    -1.8324     3.1983     3.7689 </r>
       <r>    -1.7777     3.6748     3.9697 </r>
       <r>    -1.7231     5.4433     4.2672 </r>
       <r>    -1.6684     5.6507     4.5760 </r>
       <r>    -1.6138     4.5855     4.8266 </r>
       <r>    -1.5591     3.9370     5.0418 </r>
       <r>    -1.5045     4.3243     5.2781 </r>
       <r>    -1.4498     4.2532     5.5105 </r>
       <r>    -1.3952     4.8854     5.7775 </r>
       <r>    -1.3405     5.8815     6.0989 </r>
       <r>    -1.2859     6.2212     6.4389 </r>
       <r>    -1.2312     4.5024     6.6850 </r>
       <r>    -1.1766     3.8118     6.8933 </r>
       <r>    -1.1219     5.5823     7.1984 </r>
       <r>    -1.0673     6.2817     7.5417 </r>
       <r>    -1.0126     5.9508     7.8669 </r>
       <r>    -0.9580     4.8987     8.1346 </r>
       <r>    -0.9033     4.6293     8.3876 </r>
       <r>    -0.8487     5.2349     8.6737 </r>
       <r>    -0.7940     6.2784     9.0168 </r>
       <r>    -0.7394     6.3279     9.3626 </r>
       <r>    -0.6847     7.7195     9.7845 </r>
       <r>    -0.6301     5.7859    10.1006 </r>
       <r>    -0.5754     5.2351    10.3867 </r>
       <r>    -0.5208     4.8835    10.6536 </r>
       <r>    -0.4661     4.7485    10.9131 </r>
       <r>    -0.4115     7.5788    11.3273 </r>
       <r>    -0.3568     7.8126    11.7543 </r>
       <r>    -0.3022     6.4822    12.1085 </r>
       <r>    -0.2475     6.3391    12.4549 </r>
       <r>    -0.1929     6.0559    12.7859 </r>
       <r>    -0.1382     5.9226    13.1096 </r>
       <r>    -0.0836     6.1890    13.4478 </r>
       <r>    -0.0289     7.1354    13.8377 </r>
       <r>     0.0257     7.3137    14.2374 </r>
       <r>     0.0804     6.9232    14.6158 </r>
       <r>     0.1350     6.4267    14.9670 </r>
       <r>     0.1897     6.3953    15.3165 </r>
       <r>     0.2443     7.2433    15.7124 </r>
       <r>     0.2990     6.5560    16.0706 </r>
       <r>     0.3536     6.8543    16.4452 </r>
       <r>     0.4083     6.9236    16.8236 </r>
       <r>     0.4629     8.1459    17.2688 </r>
       <r>     0.5176     7.7440    17.6920 </r>
       <r>     0.5722     6.9284    18.0706 </r>
       <r>     0.6269     7.2848    18.4687 </r>
       <r>     0.6815     6.8637    18.8438 </r>
       <r>     0.7362     7.2758    19.2414 </r>
       <r>     0.7908     6.0292    19.5709 </r>
       <r>     0.8455     6.7159    19.9379 </r>
       <r>     0.9001     7.9965    20.3749 </r>
       <r>     0.9548     8.6977    20.8503 </r>
       <r>     1.0094     8.4334    21.3112 </r>
       <r>     1.0641     9.4981    21.8302 </r>
       <r>     1.1187     7.9814    22.2664 </r>
       <r>     1.1734     6.5243    22.6230 </r>
       <r>     1.2280     7.1983    23.0163 </r>
       <r>     1.2827     7.8837    23.4472 </r>
       <r>     1.3373     8.3791    23.9051 </r>
       <r>     1.3920     8.7424    24.3829 </r>
       <r>     1.4466     6.7298    24.7507 </r>
       <r>     1.5013     7.1955    25.1439 </r>
       <r>     1.5559     9.5249    25.6644 </r>
       <r>     1.6106     9.9789    26.2098 </r>
       <r>     1.6652     8.0826    26.6515 </r>
       <r>     1.7199     6.6203    27.0133 </r>
       <r>     1.7745     8.1715    27.4598 </r>
       <r>     1.8292     9.9946    28.0060 </r>
       <r>     1.8838     9.6300    28.5323 </r>
       <r>     1.9385    10.1413    29.0865 </r>
       <r>     1.9931     9.3010    29.5948 </r>
       <r>     2.0478     6.9655    29.9755 </r>
       <r>     2.1024     6.3163    30.3207 </r>
       <r>     2.1571     7.2373    30.7162 </r>
       <r>     2.2117     9.4211    31.2311 </r>
       <r>     2.2663    10.6594    31.8136 </r>
       <r>     2.3210     9.9132    32.3553 </r>
       <r>     2.3756     7.9004    32.7871 </r>
       <r>     2.4303     7.9672    33.2225 </r>
       <r>     2.4849    11.6855    33.8611 </r>
       <r>     2.5396    10.7342    34.4477 </r>
       <r>     2.5942     8.4301    34.9084 </r>
       <r>     2.6489     9.9672    35.4531 </r>
       <r>     2.7035     9.8196    35.9898 </r>
       <r>     2.7582     8.1449    36.4349 </r>
       <r>     2.8128     7.9810    36.8711 </r>
       <r>     2.8675     9.0195    37.3640 </r>
       <r>     2.9221     8.9743    37.8544 </r>
       <r>     2.9768     8.4625    38.3169 </r>
       <r>     3.0314     9.3178    38.8261 </r>
       <r>     3.0861    11.4547    39.4521 </r>
       <r>     3.1407    11.5014    40.0807 </r>
       <r>     3.1954    10.6667    40.6636 </r>
       <r>     3.2500    11.0852    41.2694 </r>
       <r>     3.3047    10.8685    41.8634 </r>
       <r>     3.3593     8.8135    42.3450 </r>
       <r>     3.4140     8.3994    42.8040 </r>
       <r>     3.4686     8.7542    43.2824 </r>
       <r>     3.5233    10.8745    43.8767 </r>
       <r>     3.5779    10.8306    44.4686 </r>
       <r>     3.6326    10.2441    45.0285 </r>
       <r>     3.6872    10.8301    45.6203 </r>
       <r>     3.7419    10.0052    46.1671 </r>
       <r>     3.7965     8.8696    46.6518 </r>
       <r>     3.8512     8.6187    47.1228 </r>
       <r>     3.9058    10.7690    47.7114 </r>
       <r>     3.9605    12.6295    48.4016 </r>
       <r>     4.0151    10.8267    48.9932 </r>
       <r>     4.0698    11.1052    49.6001 </r>
       <r>     4.1244    10.5884    50.1788 </r>
       <r>     4.1791    10.5787    50.7569 </r>
       <r>     4.2337    11.1236    51.3648 </r>
       <r>     4.2884    11.1487    51.9741 </r>
       <r>     4.3430    12.8161    52.6745 </r>
       <r>     4.3977    10.5722    53.2523 </r>
       <r>     4.4523     9.2511    53.7578 </r>
       <r>     4.5070     9.2052    54.2609 </r>
       <r>     4.5616     8.8510    54.7446 </r>
       <r>     4.6163    10.9086    55.3407 </r>
       <r>     4.6709    11.5530    55.9721 </r>
       <r>     4.7256    12.9740    56.6811 </r>
       <r>     4.7802    13.6883    57.4292 </r>
       <r>     4.8349    11.9838    58.0841 </r>
       <r>     4.8895    13.0382    58.7966 </r>
       <r>     4.9442    12.7400    59.4929 </r>
       <r>     4.9988    10.3150    60.0566 </r>
       <r>     5.0535     9.5641    60.5793 </r>
       <r>     5.1081    12.0326    61.2368 </r>
       <r>     5.1628    12.7649    61.9344 </r>
       <r>     5.2174    12.2160    62.6020 </r>
       <r>     5.2721    12.4399    63.2819 </r>
       <r>     5.3267    12.1708    63.9470 </r>
       <r>     5.3814    12.6705    64.6395 </r>
       <r>     5.4360    11.5850    65.2726 </r>
       <r>     5.4907    10.3947    65.8406 </r>
       <r>     5.5453    11.8913    66.4905 </r>
       <r>     5.6000    13.5552    67.2313 </r>
       <r>     5.6546    12.3999    67.9089 </r>
       <r>     5.7093    12.0953    68.5699 </r>
       <r>     5.7639    11.3364    69.1895 </r>
       <r>     5.8186     9.9808    69.7349 </r>
       <r>     5.8732    11.3721    70.3564 </r>
       <r>     5.9279    13.0559    71.0699 </r>
       <r>     5.9825     9.7834    71.6046 </r>
       <r>     6.0372     9.5117    72.1244 </r>
       <r>     6.0918    11.2445    72.7389 </r>
       <r>     6.1465    12.8401    73.4406 </r>
       <r>     6.2011    11.8114    74.0861 </r>
       <r>     6.2558    10.5682    74.6636 </r>
       <r>     6.3104    11.9467    75.3165 </r>
       <r>     6.3651    12.3881    75.9935 </r>
       <r>     6.4197    12.6668    76.6858 </r>
       <r>     6.4744    12.3451    77.3604 </r>
       <r>     6.5290    10.0971    77.9122 </r>
       <r>     6.5837     9.8728    78.4518 </r>
       <r>     6.6383    10.7658    79.0401 </r>
       <r>     6.6930    11.3536    79.6606 </r>
       <r>     6.7476    11.6323    80.2963 </r>
       <r>     6.8023    11.6920    80.9353 </r>
       <r>     6.8569    13.0067    81.6461 </r>
       <r>     6.9116    13.3835    82.3775 </r>
       <r>     6.9662    13.6183    83.1217 </r>
       <r>     7.0209    14.6953    83.9248 </r>
       <r>     7.0755    12.6558    84.6164 </r>
       <r>     7.1302    11.1751    85.2272 </r>
       <r>     7.1848    12.7500    85.9239 </r>
       <r>     7.2395    12.0378    86.5818 </r>
       <r>     7.2941    11.1451    87.1909 </r>
       <r>     7.3488    13.5644    87.9322 </r>
       <r>     7.4034    13.0590    88.6458 </r>
       <r>     7.4581     9.8056    89.1817 </r>
       <r>     7.5127    11.4751    89.8088 </r>
       <r>     7.5674    13.0097    90.5198 </r>
       <r>     7.6220    12.3583    91.1952 </r>
       <r>     7.6767    13.7489    91.9466 </r>
       <r>     7.7313    12.7992    92.6460 </r>
       <r>     7.7860    10.3157    93.2098 </r>
       <r>     7.8406    10.2867    93.7719 </r>
       <r>     7.8953    12.4696    94.4534 </r>
       <r>     7.9499    13.1642    95.1728 </r>
       <r>     8.0046    13.4855    95.9098 </r>
       <r>     8.0592    12.6070    96.5988 </r>
       <r>     8.1139    13.7395    97.3496 </r>
       <r>     8.1685    14.8587    98.1617 </r>
       <r>     8.2232    12.8250    98.8625 </r>
       <r>     8.2778    14.1095    99.6336 </r>
       <r>     8.3325    15.1853   100.4635 </r>
       <r>     8.3871    15.5503   101.3133 </r>
       <r>     8.4418    14.0140   102.0792 </r>
       <r>     8.4964    12.6220   102.7690 </r>
       <r>     8.5511    12.7940   103.4682 </r>
       <r>     8.6057    11.0101   104.0699 </r>
       <r>     8.6604    11.1088   104.6769 </r>
       <r>     8.7150    12.4972   105.3599 </r>
       <r>     8.7697    12.1207   106.0223 </r>
       <r>     8.8243    11.8565   106.6703 </r>
       <r>     8.8790    12.9186   107.3763 </r>
       <r>     8.9336    13.5315   108.1157 </r>
       <r>     8.9883    15.9148   108.9855 </r>
       <r>     9.0429    16.8430   109.9060 </r>
       <r>     9.0976    15.3086   110.7426 </r>
       <r>     9.1522    15.5461   111.5922 </r>
       <r>     9.2069    14.7989   112.4009 </r>
       <r>     9.2615    13.8437   113.1575 </r>
       <r>     9.3162    13.1234   113.8747 </r>
       <r>     9.3708    11.8634   114.5230 </r>
       <r>     9.4255    11.5126   115.1522 </r>
       <r>     9.4801    12.7370   115.8482 </r>
       <r>     9.5348    12.4922   116.5309 </r>
       <r>     9.5894    13.1289   117.2484 </r>
       <r>     9.6441    13.2375   117.9718 </r>
       <r>     9.6987    12.6326   118.6622 </r>
       <r>     9.7534    15.1948   119.4926 </r>
       <r>     9.8080    16.5839   120.3989 </r>
       <r>     9.8627    16.2312   121.2859 </r>
       <r>     9.9173    14.9869   122.1050 </r>
       <r>     9.9720    14.6173   122.9038 </r>
       <r>    10.0266    15.7804   123.7662 </r>
       <r>    10.0813    14.6034   124.5643 </r>
       <r>    10.1359    11.5020   125.1928 </r>
       <r>    10.1906    12.2396   125.8617 </r>
       <r>    10.2452    14.7753   126.6692 </r>
       <r>    10.2999    14.0257   127.4357 </r>
       <r>    10.3545    12.6476   128.1269 </r>
       <r>    10.4092    14.1731   128.9014 </r>
       <r>    10.4638    17.5264   129.8593 </r>
       <r>    10.5185    16.0316   130.7354 </r>
       <r>    10.5731    14.4406   131.5246 </r>
       <r>    10.6278    15.6903   132.3820 </r>
       <r>    10.6824    14.6867   133.1847 </r>
       <r>    10.7371    14.5235   133.9784 </r>
       <r>    10.7917    14.1096   134.7494 </r>
       <r>    10.8464    13.0937   135.4650 </r>
       <r>    10.9010    13.8775   136.2234 </r>
       <r>    10.9557    13.0871   136.9386 </r>
       <r>    11.0103    12.5624   137.6252 </r>
       <r>    11.0650    12.8860   138.3294 </r>
       <r>    11.1196    12.7413   139.0257 </r>
       <r>    11.1743    11.5701   139.6580 </r>
       <r>    11.2289    10.9816   140.2581 </r>
       <r>    11.2836    12.1802   140.9238 </r>
       <r>    11.3382    11.5874   141.5570 </r>
       <r>    11.3929    10.9670   142.1564 </r>
       <r>    11.4475     9.8377   142.6940 </r>
       <r>    11.5022     6.8069   143.0660 </r>
       <r>    11.5568     4.8058   143.3286 </r>
       <r>    11.6115     5.0770   143.6061 </r>
       <r>    11.6661     4.1468   143.8327 </r>
       <r>    11.7208     2.2103   143.9535 </r>
       <r>    11.7754     0.7574   143.9949 </r>
       <r>    11.8301     0.0916   143.9999 </r>
       <r>    11.8847     0.0021   144.0000 </r>
       <r>    11.9394     0.0000   144.0000 </r>
       <r>    11.9940     0.0000   144.0000 </r>
       <r>    12.0487     0.0000   144.0000 </r>
       <r>    12.1033     0.0000   144.0000 </r>
       <r>    12.1580     0.0000   144.0000 </r>
       <r>    12.2126     0.0000   144.0000 </r>
       <r>    12.2673     0.0000   144.0000 </r>
       <r>    12.3219     0.0000   144.0000 </r>
       <r>    12.3765     0.0000   144.0000 </r>
       <r>    12.4312     0.0000   144.0000 </r>
       <r>    12.4858     0.0000   144.0000 </r>
      </set>
     </set>
    </array>
   </total>
  </dos>
 </calculation>
 <structure name="finalpos" >
  <crystal>
   <varray name="basis" >
    <v>       8.07809510       0.00000000       0.00000000 </v>
    <v>       0.00000000       8.07809510       0.00000000 </v>
    <v>       0.00000000       0.00000000       8.07809510 </v>
   </varray>
   <i name="volume">    527.14110776 </i>
   <varray name="rec_basis" >
    <v>       0.12379156       0.00000000       0.00000000 </v>
    <v>       0.00000000       0.12379156       0.00000000 </v>
    <v>       0.00000000       0.00000000       0.12379156 </v>
   </varray>
  </crystal>
  <varray name="positions" >
   <v>       0.00955818       0.99006748       0.99975023 </v>
   <v>       0.00606352       0.24899124       0.25128701 </v>
   <v>       0.26156416       0.98210464       0.24025836 </v>
   <v>       0.23617977       0.24608713       0.98675566 </v>
   <v>       0.98530570       0.00487368       0.48763953 </v>
   <v>       0.00348894       0.24505932       0.75359372 </v>
   <v>       0.23177246       0.99547119       0.72337648 </v>
   <v>       0.23876000       0.26303400       0.50472291 </v>
   <v>       0.00095125       0.50499012       0.00367840 </v>
   <v>       0.98852191       0.75535958       0.23200546 </v>
   <v>       0.22296727       0.49681977       0.24931311 </v>
   <v>       0.27061763       0.74965982       0.01216425 </v>
   <v>       0.99552308       0.51574392       0.50880360 </v>
   <v>       0.00939353       0.74825538       0.76320939 </v>
   <v>       0.25583994       0.49938541       0.75589417 </v>
   <v>       0.24665024       0.74963485       0.48665722 </v>
   <v>       0.50876973       0.00539260       0.99862277 </v>
   <v>       0.48215249       0.26711507       0.26624611 </v>
   <v>       0.75805349       0.00339533       0.24914689 </v>
   <v>       0.76359687       0.23766327       0.99640123 </v>
   <v>       0.50992832       0.98496612       0.49736577 </v>
   <v>       0.51078830       0.24121674       0.74814554 </v>
   <v>       0.74831372       0.98839905       0.75922562 </v>
   <v>       0.74508697       0.25285990       0.48098159 </v>
   <v>       0.50423398       0.48029909       0.99200684 </v>
   <v>       0.51920011       0.75530270       0.22963361 </v>
   <v>       0.75896332       0.51045464       0.24122534 </v>
   <v>       0.74197022       0.74340430       0.98596788 </v>
   <v>       0.49168476       0.51559032       0.50479102 </v>
   <v>       0.48391920       0.74596989       0.75260427 </v>
   <v>       0.75062567       0.48720505       0.75043438 </v>
   <v>       0.75017131       0.75260048       0.49749361 </v>
  </varray>
 </structure>
</modeling>
