<?xml version="1.0" encoding="ISO-8859-1"?>
<modeling>
 <generator>
  <i name="program" type="string">vasp </i>
  <i name="version" type="string">6.2.0  </i>
  <i name="subversion" type="string">18Jan21 (build Mar 25 2021 14:28:09) complex                          parallel </i>
  <i name="platform" type="string">LinuxGNU </i>
  <i name="date" type="string">2021 12 20 </i>
  <i name="time" type="string">09:47:24 </i>
 </generator>
 <incar>
  <i type="string" name="SYSTEM">benzene</i>
  <i type="int" name="ISTART">     0</i>
  <i type="string" name="PREC">Accurate</i>
  <i type="string" name="ALGO">Normal</i>
  <i type="int" name="NELM">   200</i>
  <i type="int" name="IBRION">    -1</i>
  <i name="EDIFF">      0.00000100</i>
  <i type="int" name="NSW">     0</i>
  <i name="ENCUT">    600.00000000</i>
  <i type="logical" name="LREAL"> F  </i>
  <i type="int" name="ISMEAR">     0</i>
  <i name="SIGMA">      0.05000000</i>
  <i type="logical" name="LWAVE"> F  </i>
  <i type="logical" name="LCHARG"> T  </i>
  <i type="string" name="GGA">PE</i>
 </incar>
 <primitive_cell>
  <structure name="primitive_cell" >
   <crystal>
    <varray name="basis" >
     <v>      10.58354422       0.00000000       0.00000000 </v>
     <v>       0.00000000      10.58354422       0.00000000 </v>
     <v>       0.00000000       0.00000000      10.58354422 </v>
    </varray>
    <i name="volume">   1185.47769178 </i>
    <varray name="rec_basis" >
     <v>       0.09448631       0.00000000       0.00000000 </v>
     <v>       0.00000000       0.09448631       0.00000000 </v>
     <v>       0.00000000       0.00000000       0.09448631 </v>
    </varray>
   </crystal>
   <varray name="positions" >
    <v>       0.50034375       0.63168610       0.50643245 </v>
    <v>       0.38333425       0.56577240       0.51021795 </v>
    <v>       0.38500055       0.43423935       0.49123405 </v>
    <v>       0.49896245       0.36996680       0.49909795 </v>
    <v>       0.61270900       0.43526660       0.50959690 </v>
    <v>       0.61159850       0.56637405       0.49456165 </v>
    <v>       0.51464715       0.72997965       0.49870750 </v>
    <v>       0.29403235       0.61971300       0.50879165 </v>
    <v>       0.30120960       0.37258740       0.48413790 </v>
    <v>       0.49786005       0.26935495       0.50587745 </v>
    <v>       0.70156770       0.38137520       0.50603985 </v>
    <v>       0.69873455       0.62368445       0.48530485 </v>
   </varray>
  </structure>
  <varray name="primitive_index" >
   <v type="int" >        1 </v>
   <v type="int" >        2 </v>
   <v type="int" >        3 </v>
   <v type="int" >        4 </v>
   <v type="int" >        5 </v>
   <v type="int" >        6 </v>
   <v type="int" >        7 </v>
   <v type="int" >        8 </v>
   <v type="int" >        9 </v>
   <v type="int" >       10 </v>
   <v type="int" >       11 </v>
   <v type="int" >       12 </v>
  </varray>
 </primitive_cell>
 <kpoints>
  <generation param="Gamma">
   <v type="int" name="divisions">       1        1        1 </v>
   <v name="usershift">      0.00000000       0.00000000       0.00000000 </v>
   <v name="genvec1">      1.00000000       0.00000000       0.00000000 </v>
   <v name="genvec2">      0.00000000       1.00000000       0.00000000 </v>
   <v name="genvec3">      0.00000000       0.00000000       1.00000000 </v>
   <v name="shift">      0.00000000       0.00000000       0.00000000 </v>
  </generation>
  <varray name="kpointlist" >
   <v>       0.00000000       0.00000000       0.00000000 </v>
  </varray>
  <varray name="weights" >
   <v>       1.00000000 </v>
  </varray>
 </kpoints>
 <parameters>
  <separator name="general" >
   <i type="string" name="SYSTEM">benzene</i>
   <i type="logical" name="LCOMPAT"> F  </i>
  </separator>
  <separator name="electronic" >
   <i type="string" name="PREC">accura</i>
   <i name="ENMAX">    600.00000000</i>
   <i name="ENAUG">    644.87300000</i>
   <i name="EDIFF">      0.00000100</i>
   <i type="int" name="IALGO">    38</i>
   <i type="int" name="IWAVPR">    10</i>
   <i type="int" name="NBANDS">    24</i>
   <i type="int" name="NBANDSLOW">    -1</i>
   <i type="int" name="NBANDSHIGH">    -1</i>
   <i name="NELECT">     30.00000000</i>
   <i type="int" name="TURBO">     0</i>
   <i type="int" name="IRESTART">     0</i>
   <i type="int" name="NREBOOT">     0</i>
   <i type="int" name="NMIN">     0</i>
   <i name="EREF">      0.00000000</i>
   <separator name="electronic smearing" >
    <i type="int" name="ISMEAR">     0</i>
    <i name="SIGMA">      0.05000000</i>
    <i name="KSPACING">      0.50000000</i>
    <i type="logical" name="KGAMMA"> T  </i>
    <i type="logical" name="KBLOWUP"> T  </i>
   </separator>
   <separator name="electronic projectors" >
    <i type="logical" name="LREAL"> F  </i>
    <v name="ROPT">      0.00000000      0.00000000</v>
    <i type="int" name="LMAXPAW">  -100</i>
    <i type="int" name="LMAXMIX">     2</i>
    <i type="logical" name="NLSPLINE"> F  </i>
   </separator>
   <separator name="electronic startup" >
    <i type="int" name="ISTART">     0</i>
    <i type="int" name="ICHARG">     2</i>
    <i type="int" name="INIWAV">     1</i>
   </separator>
   <separator name="electronic spin" >
    <i type="int" name="ISPIN">     1</i>
    <i type="logical" name="LNONCOLLINEAR"> F  </i>
    <v name="MAGMOM">      1.00000000      1.00000000      1.00000000      1.00000000      1.00000000      1.00000000      1.00000000      1.00000000      1.00000000      1.00000000      1.00000000      1.00000000</v>
    <i name="NUPDOWN">     -1.00000000</i>
    <i type="logical" name="LSORBIT"> F  </i>
    <v name="SAXIS">      0.00000000      0.00000000      1.00000000</v>
    <i type="logical" name="LSPIRAL"> F  </i>
    <v name="QSPIRAL">      0.00000000      0.00000000      0.00000000</v>
    <i type="logical" name="LZEROZ"> F  </i>
   </separator>
   <separator name="electronic exchange-correlation" >
    <i type="logical" name="LASPH"> F  </i>
    <i type="logical" name="LMETAGGA"> F  </i>
   </separator>
   <separator name="electronic convergence" >
    <i type="int" name="NELM">   200</i>
    <i type="int" name="NELMDL">    -5</i>
    <i type="int" name="NELMIN">     2</i>
    <i name="ENINI">    600.00000000</i>
    <separator name="electronic convergence detail" >
     <i type="logical" name="LDIAG"> T  </i>
     <i type="logical" name="LSUBROT"> F  </i>
     <i name="WEIMIN">      0.00000000</i>
     <i name="EBREAK">      0.00000001</i>
     <i name="DEPER">      0.30000000</i>
     <i type="int" name="NRMM">     4</i>
     <i name="TIME">      0.40000000</i>
    </separator>
   </separator>
   <separator name="electronic mixer" >
    <i name="AMIX">      0.40000000</i>
    <i name="BMIX">      1.00000000</i>
    <i name="AMIN">      0.10000000</i>
    <i name="AMIX_MAG">      1.60000000</i>
    <i name="BMIX_MAG">      1.00000000</i>
    <separator name="electronic mixer details" >
     <i type="int" name="IMIX">     4</i>
     <i type="logical" name="MIXFIRST"> F  </i>
     <i type="int" name="MAXMIX">   -45</i>
     <i name="WC">    100.00000000</i>
     <i type="int" name="INIMIX">     1</i>
     <i type="int" name="MIXPRE">     1</i>
     <i type="int" name="MREMOVE">     5</i>
    </separator>
   </separator>
   <separator name="electronic dipolcorrection" >
    <i type="logical" name="LDIPOL"> F  </i>
    <i type="logical" name="LMONO"> F  </i>
    <i type="int" name="IDIPOL">     0</i>
    <i name="EPSILON">      1.00000000</i>
    <v name="DIPOL">   -100.00000000   -100.00000000   -100.00000000</v>
    <i name="EFIELD">      0.00000000</i>
   </separator>
  </separator>
  <separator name="grids" >
   <i type="int" name="NGX">    90</i>
   <i type="int" name="NGY">    90</i>
   <i type="int" name="NGZ">    90</i>
   <i type="int" name="NGXF">   180</i>
   <i type="int" name="NGYF">   180</i>
   <i type="int" name="NGZF">   180</i>
   <i type="logical" name="ADDGRID"> F  </i>
  </separator>
  <separator name="ionic" >
   <i type="int" name="NSW">     0</i>
   <i type="int" name="IBRION">    -1</i>
   <i type="int" name="MDALGO">     0</i>
   <i type="int" name="ISIF">     2</i>
   <i name="PSTRESS">      0.00000000</i>
   <i name="EDIFFG">      0.00001000</i>
   <i type="int" name="NFREE">     0</i>
   <i name="POTIM">      0.50000000</i>
   <i name="SMASS">     -3.00000000</i>
   <i name="SCALEE">      1.00000000</i>
  </separator>
  <separator name="ionic md" >
   <i name="TEBEG">      0.00010000</i>
   <i name="TEEND">      0.00010000</i>
   <i type="int" name="NBLOCK">     1</i>
   <i type="int" name="KBLOCK">     1</i>
   <i type="int" name="NPACO">   256</i>
   <i name="APACO">     16.00000000</i>
  </separator>
  <separator name="symmetry" >
   <i type="int" name="ISYM">     2</i>
   <i name="SYMPREC">      0.00001000</i>
  </separator>
  <separator name="dos" >
   <i type="int" name="LORBIT">     0</i>
   <v name="RWIGS">     -1.00000000     -1.00000000</v>
   <i type="int" name="NEDOS">   301</i>
   <i name="EMIN">     10.00000000</i>
   <i name="EMAX">    -10.00000000</i>
   <i name="EFERMI">      0.00000000</i>
  </separator>
  <separator name="writing" >
   <i type="int" name="NWRITE">     2</i>
   <i type="logical" name="LWAVE"> F  </i>
   <i type="logical" name="LDOWNSAMPLE"> F  </i>
   <i type="logical" name="LCHARG"> T  </i>
   <i type="logical" name="LPARD"> F  </i>
   <i type="logical" name="LVTOT"> F  </i>
   <i type="logical" name="LVHAR"> F  </i>
   <i type="logical" name="LELF"> F  </i>
   <i type="logical" name="LOPTICS"> F  </i>
   <v name="STM">      0.00000000      0.00000000      0.00000000      0.00000000      0.00000000      0.00000000      0.00000000</v>
  </separator>
  <separator name="performance" >
   <i type="int" name="NPAR">     4</i>
   <i type="int" name="NSIM">     4</i>
   <i type="int" name="NBLK">    -1</i>
   <i type="logical" name="LPLANE"> T  </i>
   <i type="logical" name="LSCALAPACK"> T  </i>
   <i type="logical" name="LSCAAWARE"> F  </i>
   <i type="logical" name="LSCALU"> F  </i>
   <i type="logical" name="LASYNC"> F  </i>
   <i type="logical" name="LORBITALREAL"> F  </i>
  </separator>
  <separator name="miscellaneous" >
   <i type="int" name="IDIOT">     3</i>
   <i type="int" name="PHON_NSTRUCT">    -1</i>
   <i type="logical" name="LMUSIC"> F  </i>
   <v name="POMASS">     12.01100000      1.00000000</v>
   <v name="DARWINR">      0.00000000      0.00000000</v>
   <v name="DARWINV">      1.00000000      1.00000000</v>
   <i type="logical" name="LCORR"> T  </i>
  </separator>
  <i type="logical" name="GGA_COMPAT"> T  </i>
  <i type="logical" name="LBERRY"> F  </i>
  <i type="int" name="ICORELEVEL">     0</i>
  <i type="logical" name="LDAU"> F  </i>
  <i type="int" name="I_CONSTRAINED_M">     0</i>
  <separator name="electronic exchange-correlation" >
   <i type="string" name="GGA">PE</i>
   <i type="int" name="VOSKOWN">     0</i>
   <i type="logical" name="LHFCALC"> F  </i>
   <i type="string" name="PRECFOCK"></i>
   <i type="logical" name="LSYMGRAD"> F  </i>
   <i type="logical" name="LHFONE"> F  </i>
   <i type="logical" name="LRHFCALC"> F  </i>
   <i type="logical" name="LTHOMAS"> F  </i>
   <i type="logical" name="LMODELHF"> F  </i>
   <i type="logical" name="LFOCKACE"> F  </i>
   <i name="ENCUT4O">     -1.00000000</i>
   <i type="int" name="EXXOEP">     0</i>
   <i type="int" name="FOURORBIT">     0</i>
   <i name="AEXX">      0.00000000</i>
   <i name="HFALPHA">      0.00000000</i>
   <i name="MCALPHA">      0.00000000</i>
   <i name="ALDAX">      1.00000000</i>
   <i name="AGGAX">      1.00000000</i>
   <i name="ALDAC">      1.00000000</i>
   <i name="AGGAC">      1.00000000</i>
   <i type="int" name="NKREDX">     1</i>
   <i type="int" name="NKREDY">     1</i>
   <i type="int" name="NKREDZ">     1</i>
   <i type="logical" name="SHIFTRED"> F  </i>
   <i type="logical" name="ODDONLY"> F  </i>
   <i type="logical" name="EVENONLY"> F  </i>
   <i type="int" name="LMAXFOCK">     0</i>
   <i type="int" name="NMAXFOCKAE">     0</i>
   <i type="logical" name="LFOCKAEDFT"> F  </i>
   <i name="HFSCREEN">      0.00000000</i>
   <i name="HFSCREENC">      0.00000000</i>
   <i type="int" name="NBANDSGWLOW">     0</i>
  </separator>
  <separator name="vdW DFT" >
   <i type="logical" name="LUSE_VDW"> F  </i>
   <i name="Zab_VDW">     -0.84910000</i>
   <i name="PARAM1">      0.12340000</i>
   <i name="PARAM2">      1.00000000</i>
   <i name="PARAM3">      0.00000000</i>
  </separator>
  <separator name="model GW" >
   <i type="int" name="MODEL_GW">     0</i>
   <i name="MODEL_EPS0">     59.27388459</i>
   <i name="MODEL_ALPHA">      1.00000000</i>
  </separator>
  <separator name="linear response parameters" >
   <i type="logical" name="LEPSILON"> F  </i>
   <i type="logical" name="LRPA"> F  </i>
   <i type="logical" name="LNABLA"> F  </i>
   <i type="logical" name="LVEL"> F  </i>
   <i type="int" name="KINTER">     0</i>
   <i name="CSHIFT">      0.10000000</i>
   <i name="OMEGAMAX">     -1.00000000</i>
   <i name="DEG_THRESHOLD">      0.00200000</i>
   <i name="RTIME">     -0.10000000</i>
   <i name="WPLASMAI">      0.00000000</i>
   <v name="DFIELD">      0.00000000      0.00000000      0.00000000</v>
   <v name="WPLASMA">      0.00000000      0.00000000      0.00000000      0.00000000      0.00000000      0.00000000      0.00000000      0.00000000      0.00000000</v>
  </separator>
  <separator name="orbital magnetization" >
   <i type="logical" name="NUCIND"> F  </i>
   <v name="MAGPOS">      0.00000000      0.00000000      0.00000000</v>
   <i type="logical" name="LNICSALL"> T  </i>
   <i type="logical" name="ORBITALMAG"> F  </i>
   <i type="logical" name="LMAGBLOCH"> F  </i>
   <i type="logical" name="LCHIMAG"> F  </i>
   <i type="logical" name="LGAUGE"> T  </i>
   <i type="int" name="MAGATOM">     0</i>
   <v name="MAGDIPOL">      0.00000000      0.00000000      0.00000000</v>
   <v name="AVECCONST">      0.00000000      0.00000000      0.00000000</v>
  </separator>
  <separator name="response functions" >
   <i type="logical" name="LFINITE_TEMPERATURE"> F  </i>
   <i type="logical" name="LADDER"> F  </i>
   <i type="logical" name="LRPAFORCE"> F  </i>
   <i type="logical" name="LFXC"> F  </i>
   <i type="logical" name="LHARTREE"> T  </i>
   <i type="int" name="IBSE">     0</i>
   <v type="int" name="KPOINT">    -1     0     0     0</v>
   <i type="logical" name="LTCTC"> F  </i>
   <i type="logical" name="LTCTE"> F  </i>
   <i type="logical" name="LTETE"> F  </i>
   <i type="logical" name="LTRIPLET"> F  </i>
   <i type="logical" name="LFXCEPS"> F  </i>
   <i type="logical" name="LFXHEG"> F  </i>
   <i type="int" name="NATURALO">     2</i>
   <i type="logical" name="LHOLEGF"> F  </i>
   <i type="logical" name="L2ORDER"> F  </i>
   <i type="logical" name="LDMP1"> F  </i>
   <i type="logical" name="LMP2LT"> F  </i>
   <i type="logical" name="LSMP2LT"> F  </i>
   <i type="logical" name="LGWLF"> F  </i>
   <i name="ENCUTGW">     -2.00000000</i>
   <i name="ENCUTGWSOFT">     -2.00000000</i>
   <i name="ENCUTLF">     -1.00000000</i>
   <i type="logical" name="LESF_SPLINES"> F  </i>
   <i type="int" name="LMAXMP2">    -1</i>
   <i name="SCISSOR">      0.00000000</i>
   <i type="int" name="NOMEGA">     0</i>
   <i type="int" name="NOMEGAR">     0</i>
   <i type="int" name="NBANDSGW">    -1</i>
   <i type="int" name="NBANDSO">    -1</i>
   <i type="int" name="NBANDSV">    -1</i>
   <i type="int" name="NELM">   200</i>
   <i type="int" name="NELMHF">     1</i>
   <i type="int" name="DIM">     3</i>
   <i type="int" name="IESPILON">     4</i>
   <i type="int" name="ANTIRES">     0</i>
   <i name="OMEGAMAX">    -30.00000000</i>
   <i name="OMEGAMIN">    -30.00000000</i>
   <i name="OMEGATL">   -200.00000000</i>
   <i type="int" name="OMEGAGRID">     0</i>
   <i name="CSHIFT">     -0.10000000</i>
   <i type="logical" name="LSELFENERGY"> F  </i>
   <i type="logical" name="LSPECTRAL"> F  </i>
   <i type="logical" name="LSPECTRALGW"> F  </i>
   <i type="logical" name="LSINGLES"> F  </i>
   <i type="logical" name="LFERMIGW"> F  </i>
   <i type="logical" name="ODDONLYGW"> F  </i>
   <i type="logical" name="EVENONLYGW"> F  </i>
   <i type="int" name="NKREDLFX">     1</i>
   <i type="int" name="NKREDLFY">     1</i>
   <i type="int" name="NKREDLFZ">     1</i>
   <i type="int" name="MAXMEM">  2800</i>
   <i type="int" name="TELESCOPE">     0</i>
   <i type="int" name="NTAUPAR">    -1</i>
   <i type="int" name="NOMEGAPAR">    -1</i>
   <i name="DAMP_NEWTON">      0.80000001</i>
   <i name="LAMBDA">      1.00000000</i>
  </separator>
  <separator name="External order field" >
   <i name="OFIELD_KAPPA">      0.00000000</i>
   <v name="OFIELD_K">      0.00000000      0.00000000      0.00000000</v>
   <i name="OFIELD_Q6_NEAR">      0.00000000</i>
   <i name="OFIELD_Q6_FAR">      0.00000000</i>
   <i name="OFIELD_A">      0.00000000</i>
  </separator>
 </parameters>
 <atominfo>
  <atoms>      12 </atoms>
  <types>       2 </types>
  <array name="atoms" >
   <dimension dim="1">ion</dimension>
   <field type="string">element</field>
   <field type="int">atomtype</field>
   <set>
    <rc><c>C </c><c>   1</c></rc>
    <rc><c>C </c><c>   1</c></rc>
    <rc><c>C </c><c>   1</c></rc>
    <rc><c>C </c><c>   1</c></rc>
    <rc><c>C </c><c>   1</c></rc>
    <rc><c>C </c><c>   1</c></rc>
    <rc><c>H </c><c>   2</c></rc>
    <rc><c>H </c><c>   2</c></rc>
    <rc><c>H </c><c>   2</c></rc>
    <rc><c>H </c><c>   2</c></rc>
    <rc><c>H </c><c>   2</c></rc>
    <rc><c>H </c><c>   2</c></rc>
   </set>
  </array>
  <array name="atomtypes" >
   <dimension dim="1">type</dimension>
   <field type="int">atomspertype</field>
   <field type="string">element</field>
   <field>mass</field>
   <field>valence</field>
   <field type="string">pseudopotential</field>
   <set>
    <rc><c>   6</c><c>C </c><c>     12.01100000</c><c>      4.00000000</c><c>  PAW_PBE C 08Apr2002                   </c></rc>
    <rc><c>   6</c><c>H </c><c>      1.00000000</c><c>      1.00000000</c><c>  PAW_PBE H 15Jun2001                   </c></rc>
   </set>
  </array>
 </atominfo>
 <structure name="initialpos" >
  <crystal>
   <varray name="basis" >
    <v>      10.58354422       0.00000000       0.00000000 </v>
    <v>       0.00000000      10.58354422       0.00000000 </v>
    <v>       0.00000000       0.00000000      10.58354422 </v>
   </varray>
   <i name="volume">   1185.47769178 </i>
   <varray name="rec_basis" >
    <v>       0.09448631       0.00000000       0.00000000 </v>
    <v>       0.00000000       0.09448631       0.00000000 </v>
    <v>       0.00000000       0.00000000       0.09448631 </v>
   </varray>
  </crystal>
  <varray name="positions" >
   <v>       0.50034375       0.63168610       0.50643245 </v>
   <v>       0.38333425       0.56577240       0.51021795 </v>
   <v>       0.38500055       0.43423935       0.49123405 </v>
   <v>       0.49896245       0.36996680       0.49909795 </v>
   <v>       0.61270900       0.43526660       0.50959690 </v>
   <v>       0.61159850       0.56637405       0.49456165 </v>
   <v>       0.51464715       0.72997965       0.49870750 </v>
   <v>       0.29403235       0.61971300       0.50879165 </v>
   <v>       0.30120960       0.37258740       0.48413790 </v>
   <v>       0.49786005       0.26935495       0.50587745 </v>
   <v>       0.70156770       0.38137520       0.50603985 </v>
   <v>       0.69873455       0.62368445       0.48530485 </v>
  </varray>
 </structure>
 <calculation>
  <scstep>
   <time name="dav">    0.21    0.21</time>
   <time name="total">    0.48    0.48</time>
   <energy>
    <i name="alphaZ">      3.48814018 </i>
    <i name="ewald">   1136.55857747 </i>
    <i name="hartreedc">  -1770.19159207 </i>
    <i name="XCdc">     91.37369530 </i>
    <i name="pawpsdc">    663.93644290 </i>
    <i name="pawaedc">   -667.40614445 </i>
    <i name="eentropy">     -0.00000000 </i>
    <i name="bandstr">   -200.59778568 </i>
    <i name="atom">    957.82965714 </i>
    <i name="e_fr_energy">    214.99099078 </i>
    <i name="e_wo_entrp">    214.99099078 </i>
    <i name="e_0_energy">    214.99099078 </i>
   </energy>
  </scstep>
  <scstep>
   <time name="dav">    0.25    0.26</time>
   <time name="total">    0.25    0.26</time>
   <energy>
    <i name="e_fr_energy">     -2.53157560 </i>
    <i name="e_wo_entrp">     -2.53157560 </i>
    <i name="e_0_energy">     -2.53157560 </i>
   </energy>
  </scstep>
  <scstep>
   <time name="dav">    0.21    0.21</time>
   <time name="total">    0.21    0.21</time>
   <energy>
    <i name="e_fr_energy">    -78.13882995 </i>
    <i name="e_wo_entrp">    -78.13882995 </i>
    <i name="e_0_energy">    -78.13882995 </i>
   </energy>
  </scstep>
  <scstep>
   <time name="dav">    0.19    0.19</time>
   <time name="total">    0.19    0.19</time>
   <energy>
    <i name="e_fr_energy">    -83.84765926 </i>
    <i name="e_wo_entrp">    -83.84765926 </i>
    <i name="e_0_energy">    -83.84765926 </i>
   </energy>
  </scstep>
  <scstep>
   <time name="dav">    0.25    0.25</time>
   <time name="total">    0.29    0.29</time>
   <energy>
    <i name="e_fr_energy">    -83.96745811 </i>
    <i name="e_wo_entrp">    -83.96745811 </i>
    <i name="e_0_energy">    -83.96745811 </i>
   </energy>
  </scstep>
  <scstep>
   <time name="dav">    0.23    0.23</time>
   <time name="total">    0.52    0.53</time>
   <energy>
    <i name="e_fr_energy">    -77.61310129 </i>
    <i name="e_wo_entrp">    -77.61310129 </i>
    <i name="e_0_energy">    -77.61310129 </i>
   </energy>
  </scstep>
  <scstep>
   <time name="dav">    0.26    0.26</time>
   <time name="total">    0.56    0.56</time>
   <energy>
    <i name="e_fr_energy">    -75.81544291 </i>
    <i name="e_wo_entrp">    -75.81544291 </i>
    <i name="e_0_energy">    -75.81544291 </i>
   </energy>
  </scstep>
  <scstep>
   <time name="dav">    0.21    0.21</time>
   <time name="total">    0.51    0.51</time>
   <energy>
    <i name="e_fr_energy">    -75.64151064 </i>
    <i name="e_wo_entrp">    -75.64151064 </i>
    <i name="e_0_energy">    -75.64151064 </i>
   </energy>
  </scstep>
  <scstep>
   <time name="dav">    0.24    0.24</time>
   <time name="total">    0.53    0.53</time>
   <energy>
    <i name="e_fr_energy">    -75.61365943 </i>
    <i name="e_wo_entrp">    -75.61365943 </i>
    <i name="e_0_energy">    -75.61365943 </i>
   </energy>
  </scstep>
  <scstep>
   <time name="dav">    0.22    0.22</time>
   <time name="total">    0.51    0.51</time>
   <energy>
    <i name="e_fr_energy">    -75.60835433 </i>
    <i name="e_wo_entrp">    -75.60835433 </i>
    <i name="e_0_energy">    -75.60835433 </i>
   </energy>
  </scstep>
  <scstep>
   <time name="dav">    0.20    0.20</time>
   <time name="total">    0.49    0.49</time>
   <energy>
    <i name="e_fr_energy">    -75.60111764 </i>
    <i name="e_wo_entrp">    -75.60111764 </i>
    <i name="e_0_energy">    -75.60111764 </i>
   </energy>
  </scstep>
  <scstep>
   <time name="dav">    0.21    0.21</time>
   <time name="total">    0.49    0.50</time>
   <energy>
    <i name="e_fr_energy">    -75.60453717 </i>
    <i name="e_wo_entrp">    -75.60453717 </i>
    <i name="e_0_energy">    -75.60453717 </i>
   </energy>
  </scstep>
  <scstep>
   <time name="dav">    0.23    0.23</time>
   <time name="total">    0.51    0.51</time>
   <energy>
    <i name="e_fr_energy">    -75.61579941 </i>
    <i name="e_wo_entrp">    -75.61579941 </i>
    <i name="e_0_energy">    -75.61579941 </i>
   </energy>
  </scstep>
  <scstep>
   <time name="dav">    0.21    0.21</time>
   <time name="total">    0.49    0.49</time>
   <energy>
    <i name="e_fr_energy">    -75.62146831 </i>
    <i name="e_wo_entrp">    -75.62146831 </i>
    <i name="e_0_energy">    -75.62146831 </i>
   </energy>
  </scstep>
  <scstep>
   <time name="dav">    0.21    0.21</time>
   <time name="total">    0.48    0.49</time>
   <energy>
    <i name="e_fr_energy">    -75.62521915 </i>
    <i name="e_wo_entrp">    -75.62521915 </i>
    <i name="e_0_energy">    -75.62521915 </i>
   </energy>
  </scstep>
  <scstep>
   <time name="dav">    0.21    0.21</time>
   <time name="total">    0.49    0.49</time>
   <energy>
    <i name="e_fr_energy">    -75.62623708 </i>
    <i name="e_wo_entrp">    -75.62623708 </i>
    <i name="e_0_energy">    -75.62623708 </i>
   </energy>
  </scstep>
  <scstep>
   <time name="dav">    0.21    0.21</time>
   <time name="total">    0.49    0.49</time>
   <energy>
    <i name="e_fr_energy">    -75.62684469 </i>
    <i name="e_wo_entrp">    -75.62684469 </i>
    <i name="e_0_energy">    -75.62684469 </i>
   </energy>
  </scstep>
  <scstep>
   <time name="dav">    0.20    0.20</time>
   <time name="total">    0.48    0.49</time>
   <energy>
    <i name="e_fr_energy">    -75.62694444 </i>
    <i name="e_wo_entrp">    -75.62694444 </i>
    <i name="e_0_energy">    -75.62694444 </i>
   </energy>
  </scstep>
  <scstep>
   <time name="dav">    0.19    0.19</time>
   <time name="total">    0.47    0.47</time>
   <energy>
    <i name="e_fr_energy">    -75.62699222 </i>
    <i name="e_wo_entrp">    -75.62699222 </i>
    <i name="e_0_energy">    -75.62699222 </i>
   </energy>
  </scstep>
  <scstep>
   <time name="dav">    0.19    0.19</time>
   <time name="total">    0.47    0.48</time>
   <energy>
    <i name="e_fr_energy">    -75.62700367 </i>
    <i name="e_wo_entrp">    -75.62700367 </i>
    <i name="e_0_energy">    -75.62700367 </i>
   </energy>
  </scstep>
  <scstep>
   <time name="dav">    0.19    0.19</time>
   <time name="total">    0.48    0.49</time>
   <energy>
    <i name="e_fr_energy">    -75.62700850 </i>
    <i name="e_wo_entrp">    -75.62700850 </i>
    <i name="e_0_energy">    -75.62700850 </i>
   </energy>
  </scstep>
  <scstep>
   <time name="dav">    0.24    0.24</time>
   <time name="total">    0.49    0.49</time>
   <energy>
    <i name="alphaZ">      3.48814018 </i>
    <i name="ewald">   1136.55857747 </i>
    <i name="hartreedc">  -1917.98213364 </i>
    <i name="XCdc">     98.29055583 </i>
    <i name="pawpsdc">   2518.75919056 </i>
    <i name="pawaedc">  -2523.02386151 </i>
    <i name="eentropy">     -0.00000000 </i>
    <i name="bandstr">   -349.54713514 </i>
    <i name="atom">    957.82965714 </i>
    <i name="e_fr_energy">    -75.62700912 </i>
    <i name="e_wo_entrp">    -75.62700912 </i>
    <i name="e_0_energy">    -75.62700912 </i>
   </energy>
  </scstep>
  <structure>
   <crystal>
    <varray name="basis" >
     <v>      10.58354422       0.00000000       0.00000000 </v>
     <v>       0.00000000      10.58354422       0.00000000 </v>
     <v>       0.00000000       0.00000000      10.58354422 </v>
    </varray>
    <i name="volume">   1185.47769178 </i>
    <varray name="rec_basis" >
     <v>       0.09448631       0.00000000       0.00000000 </v>
     <v>       0.00000000       0.09448631       0.00000000 </v>
     <v>       0.00000000       0.00000000       0.09448631 </v>
    </varray>
   </crystal>
   <varray name="positions" >
    <v>       0.50034375       0.63168610       0.50643245 </v>
    <v>       0.38333425       0.56577240       0.51021795 </v>
    <v>       0.38500055       0.43423935       0.49123405 </v>
    <v>       0.49896245       0.36996680       0.49909795 </v>
    <v>       0.61270900       0.43526660       0.50959690 </v>
    <v>       0.61159850       0.56637405       0.49456165 </v>
    <v>       0.51464715       0.72997965       0.49870750 </v>
    <v>       0.29403235       0.61971300       0.50879165 </v>
    <v>       0.30120960       0.37258740       0.48413790 </v>
    <v>       0.49786005       0.26935495       0.50587745 </v>
    <v>       0.70156770       0.38137520       0.50603985 </v>
    <v>       0.69873455       0.62368445       0.48530485 </v>
   </varray>
  </structure>
  <varray name="forces" >
   <v>      -1.09577656      -1.18214783      -0.38232490 </v>
   <v>       0.07739983       0.50006969      -0.99180053 </v>
   <v>      -0.54240366       0.07172258       0.85589712 </v>
   <v>       0.44531714       0.48772399       0.44802767 </v>
   <v>       0.58804989      -0.37033423      -1.19604900 </v>
   <v>       1.31853549      -0.22722742       0.80873815 </v>
   <v>      -0.71918425       1.50521329       0.17422907 </v>
   <v>       0.32300339      -0.28518413       0.15098517 </v>
   <v>      -0.03503460       0.70429084       0.01158033 </v>
   <v>       0.05926348      -0.87593759      -0.18801463 </v>
   <v>      -0.17826575       0.22529456       0.23316446 </v>
   <v>      -0.24090440      -0.55348375       0.07556710 </v>
  </varray>
  <varray name="stress" >
   <v>       1.33303846      -3.67067948       0.05282298 </v>
   <v>      -3.67067948       1.81348283      -0.24568614 </v>
   <v>       0.05282298      -0.24568614      -0.69657609 </v>
  </varray>
  <energy>
   <i name="e_fr_energy">    -75.62700912 </i>
   <i name="e_wo_entrp">    -75.62700912 </i>
   <i name="e_0_energy">    -75.62700912 </i>
  </energy>
  <time name="totalsc">   15.02   15.22</time>
  <eigenvalues>
   <array>
    <dimension dim="1">band</dimension>
    <dimension dim="2">kpoint</dimension>
    <dimension dim="3">spin</dimension>
    <field>eigene</field>
    <field>occ</field>
    <set>
     <set comment="spin 1">
      <set comment="kpoint 1">
       <r>  -20.8383    1.0000 </r>
       <r>  -18.1550    1.0000 </r>
       <r>  -17.8849    1.0000 </r>
       <r>  -14.5882    1.0000 </r>
       <r>  -14.1856    1.0000 </r>
       <r>  -12.4430    1.0000 </r>
       <r>  -10.7314    1.0000 </r>
       <r>  -10.4842    1.0000 </r>
       <r>   -9.7687    1.0000 </r>
       <r>   -9.7074    1.0000 </r>
       <r>   -8.6793    1.0000 </r>
       <r>   -7.8230    1.0000 </r>
       <r>   -7.6808    1.0000 </r>
       <r>   -5.9623    1.0000 </r>
       <r>   -5.8415    1.0000 </r>
       <r>   -1.0222    0.0000 </r>
       <r>   -0.7518    0.0000 </r>
       <r>   -0.4164    0.0000 </r>
       <r>    0.7539    0.0000 </r>
       <r>    0.7963    0.0000 </r>
       <r>    0.8707    0.0000 </r>
       <r>    0.9054    0.0000 </r>
       <r>    0.9861    0.0000 </r>
       <r>    1.4607    0.0000 </r>
      </set>
     </set>
    </set>
   </array>
  </eigenvalues>
  <separator name="orbital magnetization" >
   <v name="MAGDIPOLOUT">      0.00000000      0.00000000      0.00000000</v>
  </separator>
  <dos>
   <i name="efermi">     -5.59043319 </i>
   <total>
    <array>
     <dimension dim="1">gridpoints</dimension>
     <dimension dim="2">spin</dimension>
     <field>energy</field>
     <field>total</field>
     <field>integrated</field>
     <set>
      <set comment="spin 1">
       <r>   -21.9532     0.0000     0.0000 </r>
       <r>   -21.8715     0.0000     0.0000 </r>
       <r>   -21.7897     0.0000     0.0000 </r>
       <r>   -21.7080     0.0000     0.0000 </r>
       <r>   -21.6262     0.0000     0.0000 </r>
       <r>   -21.5444     0.0000     0.0000 </r>
       <r>   -21.4627     0.0000     0.0000 </r>
       <r>   -21.3809     0.0000     0.0000 </r>
       <r>   -21.2991     0.0000     0.0000 </r>
       <r>   -21.2174     0.0000     0.0000 </r>
       <r>   -21.1356     0.0000     0.0000 </r>
       <r>   -21.0539     0.0000     0.0000 </r>
       <r>   -20.9721     0.0019     0.0002 </r>
       <r>   -20.8903     1.7240     0.1411 </r>
       <r>   -20.8086    17.8383     1.5996 </r>
       <r>   -20.7268     4.8771     1.9984 </r>
       <r>   -20.6450     0.0197     2.0000 </r>
       <r>   -20.5633     0.0000     2.0000 </r>
       <r>   -20.4815     0.0000     2.0000 </r>
       <r>   -20.3997     0.0000     2.0000 </r>
       <r>   -20.3180     0.0000     2.0000 </r>
       <r>   -20.2362     0.0000     2.0000 </r>
       <r>   -20.1545     0.0000     2.0000 </r>
       <r>   -20.0727     0.0000     2.0000 </r>
       <r>   -19.9909     0.0000     2.0000 </r>
       <r>   -19.9092     0.0000     2.0000 </r>
       <r>   -19.8274     0.0000     2.0000 </r>
       <r>   -19.7456     0.0000     2.0000 </r>
       <r>   -19.6639     0.0000     2.0000 </r>
       <r>   -19.5821     0.0000     2.0000 </r>
       <r>   -19.5004     0.0000     2.0000 </r>
       <r>   -19.4186     0.0000     2.0000 </r>
       <r>   -19.3368     0.0000     2.0000 </r>
       <r>   -19.2551     0.0000     2.0000 </r>
       <r>   -19.1733     0.0000     2.0000 </r>
       <r>   -19.0915     0.0000     2.0000 </r>
       <r>   -19.0098     0.0000     2.0000 </r>
       <r>   -18.9280     0.0000     2.0000 </r>
       <r>   -18.8463     0.0000     2.0000 </r>
       <r>   -18.7645     0.0000     2.0000 </r>
       <r>   -18.6827     0.0000     2.0000 </r>
       <r>   -18.6010     0.0000     2.0000 </r>
       <r>   -18.5192     0.0000     2.0000 </r>
       <r>   -18.4374     0.0000     2.0000 </r>
       <r>   -18.3557     0.0000     2.0000 </r>
       <r>   -18.2739     0.0094     2.0008 </r>
       <r>   -18.1921     3.5716     2.2928 </r>
       <r>   -18.1104    18.3427     3.7925 </r>
       <r>   -18.0286     2.5336     3.9997 </r>
       <r>   -17.9469     0.9784     4.0797 </r>
       <r>   -17.8651    16.4490     5.4246 </r>
       <r>   -17.7833     6.9876     5.9959 </r>
       <r>   -17.7016     0.0498     6.0000 </r>
       <r>   -17.6198     0.0000     6.0000 </r>
       <r>   -17.5380     0.0000     6.0000 </r>
       <r>   -17.4563     0.0000     6.0000 </r>
       <r>   -17.3745     0.0000     6.0000 </r>
       <r>   -17.2928     0.0000     6.0000 </r>
       <r>   -17.2110     0.0000     6.0000 </r>
       <r>   -17.1292     0.0000     6.0000 </r>
       <r>   -17.0475     0.0000     6.0000 </r>
       <r>   -16.9657     0.0000     6.0000 </r>
       <r>   -16.8839     0.0000     6.0000 </r>
       <r>   -16.8022     0.0000     6.0000 </r>
       <r>   -16.7204     0.0000     6.0000 </r>
       <r>   -16.6387     0.0000     6.0000 </r>
       <r>   -16.5569     0.0000     6.0000 </r>
       <r>   -16.4751     0.0000     6.0000 </r>
       <r>   -16.3934     0.0000     6.0000 </r>
       <r>   -16.3116     0.0000     6.0000 </r>
       <r>   -16.2298     0.0000     6.0000 </r>
       <r>   -16.1481     0.0000     6.0000 </r>
       <r>   -16.0663     0.0000     6.0000 </r>
       <r>   -15.9845     0.0000     6.0000 </r>
       <r>   -15.9028     0.0000     6.0000 </r>
       <r>   -15.8210     0.0000     6.0000 </r>
       <r>   -15.7393     0.0000     6.0000 </r>
       <r>   -15.6575     0.0000     6.0000 </r>
       <r>   -15.5757     0.0000     6.0000 </r>
       <r>   -15.4940     0.0000     6.0000 </r>
       <r>   -15.4122     0.0000     6.0000 </r>
       <r>   -15.3304     0.0000     6.0000 </r>
       <r>   -15.2487     0.0000     6.0000 </r>
       <r>   -15.1669     0.0000     6.0000 </r>
       <r>   -15.0852     0.0000     6.0000 </r>
       <r>   -15.0034     0.0000     6.0000 </r>
       <r>   -14.9216     0.0000     6.0000 </r>
       <r>   -14.8399     0.0000     6.0000 </r>
       <r>   -14.7581     0.0000     6.0000 </r>
       <r>   -14.6763     0.1546     6.0126 </r>
       <r>   -14.5946    10.3175     6.8562 </r>
       <r>   -14.5128    13.5846     7.9669 </r>
       <r>   -14.4311     0.4042     8.0000 </r>
       <r>   -14.3493     0.0002     8.0000 </r>
       <r>   -14.2675     0.2513     8.0205 </r>
       <r>   -14.1858    11.9442     8.9971 </r>
       <r>   -14.1040    12.0093     9.9791 </r>
       <r>   -14.0222     0.2561    10.0000 </r>
       <r>   -13.9405     0.0000    10.0000 </r>
       <r>   -13.8587     0.0000    10.0000 </r>
       <r>   -13.7769     0.0000    10.0000 </r>
       <r>   -13.6952     0.0000    10.0000 </r>
       <r>   -13.6134     0.0000    10.0000 </r>
       <r>   -13.5317     0.0000    10.0000 </r>
       <r>   -13.4499     0.0000    10.0000 </r>
       <r>   -13.3681     0.0000    10.0000 </r>
       <r>   -13.2864     0.0000    10.0000 </r>
       <r>   -13.2046     0.0000    10.0000 </r>
       <r>   -13.1228     0.0000    10.0000 </r>
       <r>   -13.0411     0.0000    10.0000 </r>
       <r>   -12.9593     0.0000    10.0000 </r>
       <r>   -12.8776     0.0000    10.0000 </r>
       <r>   -12.7958     0.0000    10.0000 </r>
       <r>   -12.7140     0.0000    10.0000 </r>
       <r>   -12.6323     0.0000    10.0000 </r>
       <r>   -12.5505     0.0290    10.0024 </r>
       <r>   -12.4687     5.6859    10.4673 </r>
       <r>   -12.3870    17.3663    11.8872 </r>
       <r>   -12.3052     1.3786    11.9999 </r>
       <r>   -12.2235     0.0012    12.0000 </r>
       <r>   -12.1417     0.0000    12.0000 </r>
       <r>   -12.0599     0.0000    12.0000 </r>
       <r>   -11.9782     0.0000    12.0000 </r>
       <r>   -11.8964     0.0000    12.0000 </r>
       <r>   -11.8146     0.0000    12.0000 </r>
       <r>   -11.7329     0.0000    12.0000 </r>
       <r>   -11.6511     0.0000    12.0000 </r>
       <r>   -11.5693     0.0000    12.0000 </r>
       <r>   -11.4876     0.0000    12.0000 </r>
       <r>   -11.4058     0.0000    12.0000 </r>
       <r>   -11.3241     0.0000    12.0000 </r>
       <r>   -11.2423     0.0000    12.0000 </r>
       <r>   -11.1605     0.0000    12.0000 </r>
       <r>   -11.0788     0.0000    12.0000 </r>
       <r>   -10.9970     0.0000    12.0000 </r>
       <r>   -10.9152     0.0000    12.0000 </r>
       <r>   -10.8335     0.0475    12.0039 </r>
       <r>   -10.7517     6.8684    12.5655 </r>
       <r>   -10.6700    16.5393    13.9178 </r>
       <r>   -10.5882     1.0450    14.0032 </r>
       <r>   -10.5064     6.4303    14.5290 </r>
       <r>   -10.4247    16.8617    15.9076 </r>
       <r>   -10.3429     1.1290    15.9999 </r>
       <r>   -10.2611     0.0008    16.0000 </r>
       <r>   -10.1794     0.0000    16.0000 </r>
       <r>   -10.0976     0.0000    16.0000 </r>
       <r>   -10.0159     0.0000    16.0000 </r>
       <r>    -9.9341     0.0000    16.0000 </r>
       <r>    -9.8523     0.2215    16.0181 </r>
       <r>    -9.7706    12.4134    17.0331 </r>
       <r>    -9.6888    28.6791    19.3780 </r>
       <r>    -9.6070     7.5526    19.9955 </r>
       <r>    -9.5253     0.0553    20.0000 </r>
       <r>    -9.4435     0.0000    20.0000 </r>
       <r>    -9.3617     0.0000    20.0000 </r>
       <r>    -9.2800     0.0000    20.0000 </r>
       <r>    -9.1982     0.0000    20.0000 </r>
       <r>    -9.1165     0.0000    20.0000 </r>
       <r>    -9.0347     0.0000    20.0000 </r>
       <r>    -8.9529     0.0000    20.0000 </r>
       <r>    -8.8712     0.0000    20.0000 </r>
       <r>    -8.7894     0.0226    20.0018 </r>
       <r>    -8.7076     5.1540    20.4233 </r>
       <r>    -8.6259    17.6873    21.8694 </r>
       <r>    -8.5441     1.5955    21.9999 </r>
       <r>    -8.4624     0.0016    22.0000 </r>
       <r>    -8.3806     0.0000    22.0000 </r>
       <r>    -8.2988     0.0000    22.0000 </r>
       <r>    -8.2171     0.0000    22.0000 </r>
       <r>    -8.1353     0.0000    22.0000 </r>
       <r>    -8.0535     0.0000    22.0000 </r>
       <r>    -7.9718     0.0003    22.0000 </r>
       <r>    -7.8900     0.7078    22.0579 </r>
       <r>    -7.8083    15.4729    23.3230 </r>
       <r>    -7.7265    10.5976    24.1895 </r>
       <r>    -7.6447    18.3747    25.6919 </r>
       <r>    -7.5630     3.7581    25.9991 </r>
       <r>    -7.4812     0.0106    26.0000 </r>
       <r>    -7.3994     0.0000    26.0000 </r>
       <r>    -7.3177     0.0000    26.0000 </r>
       <r>    -7.2359     0.0000    26.0000 </r>
       <r>    -7.1541     0.0000    26.0000 </r>
       <r>    -7.0724     0.0000    26.0000 </r>
       <r>    -6.9906     0.0000    26.0000 </r>
       <r>    -6.9089     0.0000    26.0000 </r>
       <r>    -6.8271     0.0000    26.0000 </r>
       <r>    -6.7453     0.0000    26.0000 </r>
       <r>    -6.6636     0.0000    26.0000 </r>
       <r>    -6.5818     0.0000    26.0000 </r>
       <r>    -6.5000     0.0000    26.0000 </r>
       <r>    -6.4183     0.0000    26.0000 </r>
       <r>    -6.3365     0.0000    26.0000 </r>
       <r>    -6.2548     0.0000    26.0000 </r>
       <r>    -6.1730     0.0000    26.0000 </r>
       <r>    -6.0912     0.0032    26.0003 </r>
       <r>    -6.0095     2.2210    26.1819 </r>
       <r>    -5.9277    18.4020    27.6865 </r>
       <r>    -5.8459    14.8305    28.8991 </r>
       <r>    -5.7642    13.1136    29.9713 </r>
       <r>    -5.6824     0.3514    30.0000 </r>
       <r>    -5.6007     0.0001    30.0000 </r>
       <r>    -5.5189     0.0000    30.0000 </r>
       <r>    -5.4371     0.0000    30.0000 </r>
       <r>    -5.3554     0.0000    30.0000 </r>
       <r>    -5.2736     0.0000    30.0000 </r>
       <r>    -5.1918     0.0000    30.0000 </r>
       <r>    -5.1101     0.0000    30.0000 </r>
       <r>    -5.0283     0.0000    30.0000 </r>
       <r>    -4.9465     0.0000    30.0000 </r>
       <r>    -4.8648     0.0000    30.0000 </r>
       <r>    -4.7830     0.0000    30.0000 </r>
       <r>    -4.7013     0.0000    30.0000 </r>
       <r>    -4.6195     0.0000    30.0000 </r>
       <r>    -4.5377     0.0000    30.0000 </r>
       <r>    -4.4560     0.0000    30.0000 </r>
       <r>    -4.3742     0.0000    30.0000 </r>
       <r>    -4.2924     0.0000    30.0000 </r>
       <r>    -4.2107     0.0000    30.0000 </r>
       <r>    -4.1289     0.0000    30.0000 </r>
       <r>    -4.0472     0.0000    30.0000 </r>
       <r>    -3.9654     0.0000    30.0000 </r>
       <r>    -3.8836     0.0000    30.0000 </r>
       <r>    -3.8019     0.0000    30.0000 </r>
       <r>    -3.7201     0.0000    30.0000 </r>
       <r>    -3.6383     0.0000    30.0000 </r>
       <r>    -3.5566     0.0000    30.0000 </r>
       <r>    -3.4748     0.0000    30.0000 </r>
       <r>    -3.3931     0.0000    30.0000 </r>
       <r>    -3.3113     0.0000    30.0000 </r>
       <r>    -3.2295     0.0000    30.0000 </r>
       <r>    -3.1478     0.0000    30.0000 </r>
       <r>    -3.0660     0.0000    30.0000 </r>
       <r>    -2.9842     0.0000    30.0000 </r>
       <r>    -2.9025     0.0000    30.0000 </r>
       <r>    -2.8207     0.0000    30.0000 </r>
       <r>    -2.7390     0.0000    30.0000 </r>
       <r>    -2.6572     0.0000    30.0000 </r>
       <r>    -2.5754     0.0000    30.0000 </r>
       <r>    -2.4937     0.0000    30.0000 </r>
       <r>    -2.4119     0.0000    30.0000 </r>
       <r>    -2.3301     0.0000    30.0000 </r>
       <r>    -2.2484     0.0000    30.0000 </r>
       <r>    -2.1666     0.0000    30.0000 </r>
       <r>    -2.0848     0.0000    30.0000 </r>
       <r>    -2.0031     0.0000    30.0000 </r>
       <r>    -1.9213     0.0000    30.0000 </r>
       <r>    -1.8396     0.0000    30.0000 </r>
       <r>    -1.7578     0.0000    30.0000 </r>
       <r>    -1.6760     0.0000    30.0000 </r>
       <r>    -1.5943     0.0000    30.0000 </r>
       <r>    -1.5125     0.0000    30.0000 </r>
       <r>    -1.4307     0.0000    30.0000 </r>
       <r>    -1.3490     0.0000    30.0000 </r>
       <r>    -1.2672     0.0000    30.0000 </r>
       <r>    -1.1855     0.0000    30.0000 </r>
       <r>    -1.1037     0.2595    30.0212 </r>
       <r>    -1.0219    12.0548    31.0069 </r>
       <r>    -0.9402    11.8986    31.9797 </r>
       <r>    -0.8584     0.2793    32.0026 </r>
       <r>    -0.7766     5.8660    32.4822 </r>
       <r>    -0.6949    17.2496    33.8926 </r>
       <r>    -0.6131     1.3130    33.9999 </r>
       <r>    -0.5314     0.0152    34.0012 </r>
       <r>    -0.4496     4.2481    34.3485 </r>
       <r>    -0.3678    18.1305    35.8309 </r>
       <r>    -0.2861     2.0655    35.9998 </r>
       <r>    -0.2043     0.0028    36.0000 </r>
       <r>    -0.1225     0.0000    36.0000 </r>
       <r>    -0.0408     0.0000    36.0000 </r>
       <r>     0.0410     0.0000    36.0000 </r>
       <r>     0.1228     0.0000    36.0000 </r>
       <r>     0.2045     0.0000    36.0000 </r>
       <r>     0.2863     0.0000    36.0000 </r>
       <r>     0.3680     0.0000    36.0000 </r>
       <r>     0.4498     0.0000    36.0000 </r>
       <r>     0.5316     0.0000    36.0000 </r>
       <r>     0.6133     0.0009    36.0001 </r>
       <r>     0.6951     1.2263    36.1003 </r>
       <r>     0.7769    24.1461    38.0746 </r>
       <r>     0.8586    33.7854    40.8370 </r>
       <r>     0.9404    36.5417    43.8247 </r>
       <r>     1.0221    22.8294    45.6913 </r>
       <r>     1.1039     3.7645    45.9991 </r>
       <r>     1.1857     0.0105    46.0000 </r>
       <r>     1.2674     0.0000    46.0000 </r>
       <r>     1.3492     0.0197    46.0016 </r>
       <r>     1.4310     4.8771    46.4004 </r>
       <r>     1.5127    17.8383    47.8589 </r>
       <r>     1.5945     1.7240    47.9998 </r>
       <r>     1.6762     0.0019    48.0000 </r>
       <r>     1.7580     0.0000    48.0000 </r>
       <r>     1.8398     0.0000    48.0000 </r>
       <r>     1.9215     0.0000    48.0000 </r>
       <r>     2.0033     0.0000    48.0000 </r>
       <r>     2.0851     0.0000    48.0000 </r>
       <r>     2.1668     0.0000    48.0000 </r>
       <r>     2.2486     0.0000    48.0000 </r>
       <r>     2.3304     0.0000    48.0000 </r>
       <r>     2.4121     0.0000    48.0000 </r>
       <r>     2.4939     0.0000    48.0000 </r>
       <r>     2.5756     0.0000    48.0000 </r>
      </set>
     </set>
    </array>
   </total>
  </dos>
 </calculation>
 <structure name="finalpos" >
  <crystal>
   <varray name="basis" >
    <v>      10.58354422       0.00000000       0.00000000 </v>
    <v>       0.00000000      10.58354422       0.00000000 </v>
    <v>       0.00000000       0.00000000      10.58354422 </v>
   </varray>
   <i name="volume">   1185.47769178 </i>
   <varray name="rec_basis" >
    <v>       0.09448631       0.00000000       0.00000000 </v>
    <v>       0.00000000       0.09448631       0.00000000 </v>
    <v>       0.00000000       0.00000000       0.09448631 </v>
   </varray>
  </crystal>
  <varray name="positions" >
   <v>       0.50034375       0.63168610       0.50643245 </v>
   <v>       0.38333425       0.56577240       0.51021795 </v>
   <v>       0.38500055       0.43423935       0.49123405 </v>
   <v>       0.49896245       0.36996680       0.49909795 </v>
   <v>       0.61270900       0.43526660       0.50959690 </v>
   <v>       0.61159850       0.56637405       0.49456165 </v>
   <v>       0.51464715       0.72997965       0.49870750 </v>
   <v>       0.29403235       0.61971300       0.50879165 </v>
   <v>       0.30120960       0.37258740       0.48413790 </v>
   <v>       0.49786005       0.26935495       0.50587745 </v>
   <v>       0.70156770       0.38137520       0.50603985 </v>
   <v>       0.69873455       0.62368445       0.48530485 </v>
  </varray>
 </structure>
</modeling>
