<?xml version="1.0" encoding="ISO-8859-1"?>
<modeling>
 <generator>
  <i name="program" type="string">vasp </i>
  <i name="version" type="string">5.4.4.18Apr17-6-g9f103f2a35  </i>
  <i name="subversion" type="string">(build Oct  7 2019 15:10:45) complex            parallel </i>
  <i name="platform" type="string">LinuxGNU </i>
  <i name="date" type="string">2021 11 09 </i>
  <i name="time" type="string">03:31:20 </i>
 </generator>
 <incar>
  <i type="string" name="SYSTEM">mos2</i>
  <i type="int" name="ISTART">     0</i>
  <i type="string" name="PREC">accurate</i>
  <i type="string" name="ALGO"> Normal</i>
  <i type="int" name="NSIM">     4</i>
  <i type="int" name="NELM">  1000</i>
  <i type="int" name="NELMIN">     2</i>
  <i type="int" name="IBRION">    -1</i>
  <i name="EDIFF">      0.00000100</i>
  <i type="int" name="NSW">     0</i>
  <i name="ENCUT">    600.00000000</i>
  <i type="string" name="LREAL"> Auto</i>
  <i type="int" name="ISMEAR">     0</i>
  <i name="SIGMA">      0.05000000</i>
  <i type="logical" name="LWAVE"> F  </i>
  <i type="logical" name="LCHARG"> T  </i>
  <v type="int" name="KPOINT_BSE">    -1     0     0     0</v>
  <i type="int" name="NELM">  1000</i>
 </incar>
 <structure name="primitive_cell" >
  <crystal>
   <varray name="basis" >
    <v>       9.56424100       0.00000000       0.00000000 </v>
    <v>      -4.78212000       8.28287600       0.00000000 </v>
    <v>      -0.00000000       0.00000000      18.15827300 </v>
   </varray>
   <i name="volume">   1438.48789588 </i>
   <varray name="rec_basis" >
    <v>       0.10455613       0.06036550       0.00000000 </v>
    <v>       0.00000000       0.12073101      -0.00000000 </v>
    <v>       0.00000000      -0.00000000       0.05507132 </v>
   </varray>
  </crystal>
  <varray name="positions" >
   <v>       0.03376371       0.01855966       0.49659714 </v>
   <v>      -0.20697590      -0.10924397       0.43194934 </v>
   <v>       0.23589432       0.11042302      -0.41336431 </v>
   <v>       0.10476076      -0.12257825       0.41171100 </v>
   <v>       0.12059895       0.22938747       0.40848419 </v>
   <v>      -0.11529444       0.09674119      -0.41589682 </v>
   <v>      -0.10786328      -0.20511837      -0.40939030 </v>
   <v>       0.30722886      -0.03230900       0.49903825 </v>
   <v>       0.31725084       0.34738159      -0.49855533 </v>
   <v>      -0.01874380       0.30411678       0.49883155 </v>
   <v>      -0.02350790      -0.32142727      -0.49881585 </v>
   <v>       0.42633883       0.21185942       0.42422590 </v>
   <v>      -0.34310262      -0.35867199       0.49959944 </v>
   <v>      -0.34604927       0.02725073       0.49765782 </v>
   <v>       0.21841302       0.44656584      -0.41487718 </v>
   <v>       0.21527695      -0.23695889      -0.41547369 </v>
   <v>      -0.21281349       0.22018209       0.40473441 </v>
   <v>      -0.42707050      -0.20381647      -0.41137296 </v>
   <v>      -0.22728696      -0.45303419       0.41073244 </v>
   <v>      -0.45761757       0.11705844      -0.41669595 </v>
   <v>      -0.45514172       0.43222866      -0.41635331 </v>
   <v>       0.11044569      -0.44556100       0.43924484 </v>
   <v>       0.44945911      -0.10897647       0.41132289 </v>
   <v>       0.44392858      -0.43105099       0.40792686 </v>
   <v>      -0.10620023       0.44156573      -0.41641714 </v>
   <v>      -0.30459487       0.33446840       0.49510898 </v>
   <v>       0.37479642      -0.31591739      -0.49631045 </v>
  </varray>
 </structure>
 <varray name="primitive_index" >
  <v type="int" >        1 </v>
  <v type="int" >       27 </v>
  <v type="int" >       11 </v>
  <v type="int" >       16 </v>
  <v type="int" >       12 </v>
  <v type="int" >       22 </v>
  <v type="int" >       26 </v>
  <v type="int" >        4 </v>
  <v type="int" >        2 </v>
  <v type="int" >        7 </v>
  <v type="int" >        9 </v>
  <v type="int" >       17 </v>
  <v type="int" >        8 </v>
  <v type="int" >        3 </v>
  <v type="int" >       13 </v>
  <v type="int" >       15 </v>
  <v type="int" >       23 </v>
  <v type="int" >       20 </v>
  <v type="int" >       25 </v>
  <v type="int" >       10 </v>
  <v type="int" >       19 </v>
  <v type="int" >       14 </v>
  <v type="int" >       18 </v>
  <v type="int" >       21 </v>
  <v type="int" >       24 </v>
  <v type="int" >        6 </v>
  <v type="int" >        5 </v>
 </varray>
 <kpoints>
  <generation param="Gamma">
   <v type="int" name="divisions">       6        6        1 </v>
   <v name="usershift">      0.00000000       0.00000000       0.00000000 </v>
   <v name="genvec1">      0.16666667       0.00000000       0.00000000 </v>
   <v name="genvec2">      0.00000000       0.16666667       0.00000000 </v>
   <v name="genvec3">      0.00000000       0.00000000       1.00000000 </v>
   <v name="shift">      0.00000000       0.00000000       0.00000000 </v>
  </generation>
  <varray name="kpointlist" >
   <v>       0.00000000       0.00000000       0.00000000 </v>
   <v>       0.16666667       0.00000000       0.00000000 </v>
   <v>       0.33333333       0.00000000       0.00000000 </v>
   <v>       0.50000000       0.00000000       0.00000000 </v>
   <v>       0.00000000       0.16666667       0.00000000 </v>
   <v>       0.16666667       0.16666667       0.00000000 </v>
   <v>       0.33333333       0.16666667       0.00000000 </v>
   <v>       0.50000000       0.16666667       0.00000000 </v>
   <v>      -0.33333333       0.16666667       0.00000000 </v>
   <v>      -0.16666667       0.16666667       0.00000000 </v>
   <v>       0.00000000       0.33333333       0.00000000 </v>
   <v>       0.16666667       0.33333333       0.00000000 </v>
   <v>       0.33333333       0.33333333       0.00000000 </v>
   <v>       0.50000000       0.33333333       0.00000000 </v>
   <v>      -0.33333333       0.33333333       0.00000000 </v>
   <v>      -0.16666667       0.33333333       0.00000000 </v>
   <v>       0.00000000       0.50000000       0.00000000 </v>
   <v>       0.16666667       0.50000000       0.00000000 </v>
   <v>       0.33333333       0.50000000       0.00000000 </v>
   <v>       0.50000000       0.50000000       0.00000000 </v>
  </varray>
  <varray name="weights" >
   <v>       0.02777778 </v>
   <v>       0.05555556 </v>
   <v>       0.05555556 </v>
   <v>       0.02777778 </v>
   <v>       0.05555556 </v>
   <v>       0.05555556 </v>
   <v>       0.05555556 </v>
   <v>       0.05555556 </v>
   <v>       0.05555556 </v>
   <v>       0.05555556 </v>
   <v>       0.05555556 </v>
   <v>       0.05555556 </v>
   <v>       0.05555556 </v>
   <v>       0.05555556 </v>
   <v>       0.05555556 </v>
   <v>       0.05555556 </v>
   <v>       0.02777778 </v>
   <v>       0.05555556 </v>
   <v>       0.05555556 </v>
   <v>       0.02777778 </v>
  </varray>
 </kpoints>
 <parameters>
  <separator name="general" >
   <i type="string" name="SYSTEM">mos2</i>
   <i type="logical" name="LCOMPAT"> F  </i>
  </separator>
  <separator name="electronic" >
   <i type="string" name="PREC">accura</i>
   <i name="ENMAX">    600.00000000</i>
   <i name="ENAUG">    446.01400000</i>
   <i name="EDIFF">      0.00000100</i>
   <i type="int" name="IALGO">    38</i>
   <i type="int" name="IWAVPR">    10</i>
   <i type="int" name="NBANDS">   140</i>
   <i name="NELECT">    234.00000000</i>
   <i type="int" name="TURBO">     0</i>
   <i type="int" name="IRESTART">     0</i>
   <i type="int" name="NREBOOT">     0</i>
   <i type="int" name="NMIN">     0</i>
   <i name="EREF">      0.00000000</i>
   <separator name="electronic smearing" >
    <i type="int" name="ISMEAR">     0</i>
    <i name="SIGMA">      0.05000000</i>
    <i name="KSPACING">      0.50000000</i>
    <i type="logical" name="KGAMMA"> T  </i>
   </separator>
   <separator name="electronic projectors" >
    <i type="logical" name="LREAL"> T  </i>
    <v name="ROPT">     -0.00025000     -0.00025000</v>
    <i type="int" name="LMAXPAW">  -100</i>
    <i type="int" name="LMAXMIX">     2</i>
    <i type="logical" name="NLSPLINE"> F  </i>
   </separator>
   <separator name="electronic startup" >
    <i type="int" name="ISTART">     0</i>
    <i type="int" name="ICHARG">     2</i>
    <i type="int" name="INIWAV">     1</i>
   </separator>
   <separator name="electronic spin" >
    <i type="int" name="ISPIN">     1</i>
    <i type="logical" name="LNONCOLLINEAR"> F  </i>
    <v name="MAGMOM">      1.00000000      1.00000000      1.00000000      1.00000000      1.00000000      1.00000000      1.00000000      1.00000000      1.00000000      1.00000000      1.00000000      1.00000000      1.00000000      1.00000000      1.00000000      1.00000000      1.00000000      1.00000000      1.00000000      1.00000000
      1.00000000      1.00000000      1.00000000      1.00000000      1.00000000      1.00000000      1.00000000</v>
    <i name="NUPDOWN">     -1.00000000</i>
    <i type="logical" name="LSORBIT"> F  </i>
    <v name="SAXIS">      0.00000000      0.00000000      1.00000000</v>
    <i type="logical" name="LSPIRAL"> F  </i>
    <v name="QSPIRAL">      0.00000000      0.00000000      0.00000000</v>
    <i type="logical" name="LZEROZ"> F  </i>
   </separator>
   <separator name="electronic exchange-correlation" >
    <i type="logical" name="LASPH"> F  </i>
    <i type="logical" name="LMETAGGA"> F  </i>
   </separator>
   <separator name="electronic convergence" >
    <i type="int" name="NELM">  1000</i>
    <i type="int" name="NELMDL">    -5</i>
    <i type="int" name="NELMIN">     2</i>
    <i name="ENINI">    600.00000000</i>
    <separator name="electronic convergence detail" >
     <i type="logical" name="LDIAG"> T  </i>
     <i type="logical" name="LSUBROT"> F  </i>
     <i name="WEIMIN">      0.00000000</i>
     <i name="EBREAK">      0.00000000</i>
     <i name="DEPER">      0.30000000</i>
     <i type="int" name="NRMM">     4</i>
     <i name="TIME">      0.40000000</i>
    </separator>
   </separator>
   <separator name="electronic mixer" >
    <i name="AMIX">      0.40000000</i>
    <i name="BMIX">      1.00000000</i>
    <i name="AMIN">      0.10000000</i>
    <i name="AMIX_MAG">      1.60000000</i>
    <i name="BMIX_MAG">      1.00000000</i>
    <separator name="electronic mixer details" >
     <i type="int" name="IMIX">     4</i>
     <i type="logical" name="MIXFIRST"> F  </i>
     <i type="int" name="MAXMIX">   -45</i>
     <i name="WC">    100.00000000</i>
     <i type="int" name="INIMIX">     1</i>
     <i type="int" name="MIXPRE">     1</i>
     <i type="int" name="MREMOVE">     5</i>
    </separator>
   </separator>
   <separator name="electronic dipolcorrection" >
    <i type="logical" name="LDIPOL"> F  </i>
    <i type="logical" name="LMONO"> F  </i>
    <i type="int" name="IDIPOL">     0</i>
    <i name="EPSILON">      1.00000000</i>
    <v name="DIPOL">   -100.00000000   -100.00000000   -100.00000000</v>
    <i name="EFIELD">      0.00000000</i>
   </separator>
  </separator>
  <separator name="grids" >
   <i type="int" name="NGX">    80</i>
   <i type="int" name="NGY">    80</i>
   <i type="int" name="NGZ">   150</i>
   <i type="int" name="NGXF">   160</i>
   <i type="int" name="NGYF">   160</i>
   <i type="int" name="NGZF">   300</i>
   <i type="logical" name="ADDGRID"> F  </i>
  </separator>
  <separator name="ionic" >
   <i type="int" name="NSW">     0</i>
   <i type="int" name="IBRION">    -1</i>
   <i type="int" name="MDALGO">     0</i>
   <i type="int" name="ISIF">     2</i>
   <i name="PSTRESS">      0.00000000</i>
   <i name="EDIFFG">      0.00001000</i>
   <i type="int" name="NFREE">     0</i>
   <i name="POTIM">      0.50000000</i>
   <i name="SMASS">     -3.00000000</i>
   <i name="SCALEE">      1.00000000</i>
  </separator>
  <separator name="ionic md" >
   <i name="TEBEG">      0.00010000</i>
   <i name="TEEND">      0.00010000</i>
   <i type="int" name="NBLOCK">     1</i>
   <i type="int" name="KBLOCK">     1</i>
   <i type="int" name="NPACO">   256</i>
   <i name="APACO">     16.00000000</i>
  </separator>
  <separator name="symmetry" >
   <i type="int" name="ISYM">     2</i>
   <i name="SYMPREC">      0.00001000</i>
  </separator>
  <separator name="dos" >
   <i type="int" name="LORBIT">     0</i>
   <v name="RWIGS">     -1.00000000     -1.00000000</v>
   <i type="int" name="NEDOS">   301</i>
   <i name="EMIN">     10.00000000</i>
   <i name="EMAX">    -10.00000000</i>
   <i name="EFERMI">      0.00000000</i>
  </separator>
  <separator name="writing" >
   <i type="int" name="NWRITE">     2</i>
   <i type="logical" name="LWAVE"> F  </i>
   <i type="logical" name="LDOWNSAMPLE"> F  </i>
   <i type="logical" name="LCHARG"> T  </i>
   <i type="logical" name="LPARD"> F  </i>
   <i type="logical" name="LVTOT"> F  </i>
   <i type="logical" name="LVHAR"> F  </i>
   <i type="logical" name="LELF"> F  </i>
   <i type="logical" name="LOPTICS"> F  </i>
   <v name="STM">      0.00000000      0.00000000      0.00000000      0.00000000      0.00000000      0.00000000      0.00000000</v>
  </separator>
  <separator name="performance" >
   <i type="int" name="NPAR">     4</i>
   <i type="int" name="NSIM">     4</i>
   <i type="int" name="NBLK">    -1</i>
   <i type="logical" name="LPLANE"> T  </i>
   <i type="logical" name="LSCALAPACK"> T  </i>
   <i type="logical" name="LSCAAWARE"> F  </i>
   <i type="logical" name="LSCALU"> F  </i>
   <i type="logical" name="LASYNC"> F  </i>
   <i type="logical" name="LORBITALREAL"> F  </i>
  </separator>
  <separator name="miscellaneous" >
   <i type="int" name="IDIOT">     3</i>
   <i type="int" name="ISPECIAL">     0</i>
   <i type="logical" name="LMUSIC"> F  </i>
   <v name="POMASS">     95.94000000     32.06600000</v>
   <v name="DARWINR">      0.00000000      0.00000000</v>
   <v name="DARWINV">      1.00000000      1.00000000</v>
   <i type="logical" name="LCORR"> T  </i>
  </separator>
  <i type="logical" name="GGA_COMPAT"> T  </i>
  <i type="logical" name="LBERRY"> F  </i>
  <i type="int" name="ICORELEVEL">     0</i>
  <i type="logical" name="LDAU"> F  </i>
  <i type="int" name="I_CONSTRAINED_M">     0</i>
  <separator name="electronic exchange-correlation" >
   <i type="string" name="GGA">--</i>
   <i type="int" name="VOSKOWN">     0</i>
   <i type="logical" name="LHFCALC"> F  </i>
   <i type="string" name="PRECFOCK"></i>
   <i type="logical" name="LSYMGRAD"> F  </i>
   <i type="logical" name="LHFONE"> F  </i>
   <i type="logical" name="LRHFCALC"> F  </i>
   <i type="logical" name="LTHOMAS"> F  </i>
   <i type="logical" name="LMODELHF"> F  </i>
   <i name="ENCUT4O">     -1.00000000</i>
   <i type="int" name="EXXOEP">     0</i>
   <i type="int" name="FOURORBIT">     0</i>
   <i name="AEXX">      0.00000000</i>
   <i name="HFALPHA">      0.00000000</i>
   <i name="MCALPHA">      0.00000000</i>
   <i name="ALDAX">      1.00000000</i>
   <i name="AGGAX">      1.00000000</i>
   <i name="ALDAC">      1.00000000</i>
   <i name="AGGAC">      1.00000000</i>
   <i type="int" name="NKREDX">     1</i>
   <i type="int" name="NKREDY">     1</i>
   <i type="int" name="NKREDZ">     1</i>
   <i type="logical" name="SHIFTRED"> F  </i>
   <i type="logical" name="ODDONLY"> F  </i>
   <i type="logical" name="EVENONLY"> F  </i>
   <i type="int" name="LMAXFOCK">     0</i>
   <i type="int" name="NMAXFOCKAE">     0</i>
   <i type="logical" name="LFOCKAEDFT"> F  </i>
   <i name="HFSCREEN">      0.00000000</i>
   <i name="HFSCREENC">      0.00000000</i>
   <i type="int" name="NBANDSGWLOW">     0</i>
  </separator>
  <separator name="vdW DFT" >
   <i type="logical" name="LUSE_VDW"> F  </i>
   <i name="Zab_VDW">     -0.84910000</i>
   <i name="PARAM1">      0.12340000</i>
   <i name="PARAM2">      1.00000000</i>
   <i name="PARAM3">      0.00000000</i>
  </separator>
  <separator name="model GW" >
   <i type="int" name="MODEL_GW">     0</i>
   <i name="MODEL_EPS0">     31.96639769</i>
   <i name="MODEL_ALPHA">      1.00000000</i>
  </separator>
  <separator name="linear response parameters" >
   <i type="logical" name="LEPSILON"> F  </i>
   <i type="logical" name="LRPA"> F  </i>
   <i type="logical" name="LNABLA"> F  </i>
   <i type="logical" name="LVEL"> F  </i>
   <i type="int" name="KINTER">     0</i>
   <i name="CSHIFT">      0.10000000</i>
   <i name="OMEGAMAX">     -1.00000000</i>
   <i name="DEG_THRESHOLD">      0.00200000</i>
   <i name="RTIME">     -0.10000000</i>
   <i name="WPLASMAI">      0.00000000</i>
   <v name="DFIELD">      0.00000000      0.00000000      0.00000000</v>
   <v name="WPLASMA">      0.00000000      0.00000000      0.00000000      0.00000000      0.00000000      0.00000000      0.00000000      0.00000000      0.00000000</v>
  </separator>
  <separator name="orbital magnetization" >
   <i type="logical" name="NUCIND"> F  </i>
   <v name="MAGPOS">      0.00000000      0.00000000      0.00000000</v>
   <i type="logical" name="LNICSALL"> T  </i>
   <i type="logical" name="ORBITALMAG"> F  </i>
   <i type="logical" name="LMAGBLOCH"> F  </i>
   <i type="logical" name="LCHIMAG"> F  </i>
   <i type="logical" name="LGAUGE"> T  </i>
   <i type="int" name="MAGATOM">     0</i>
   <v name="MAGDIPOL">      0.00000000      0.00000000      0.00000000</v>
   <v name="AVECCONST">      0.00000000      0.00000000      0.00000000</v>
  </separator>
  <separator name="response functions" >
   <i type="logical" name="LADDER"> F  </i>
   <i type="logical" name="LRPAFORCE"> F  </i>
   <i type="logical" name="LFXC"> F  </i>
   <i type="logical" name="LHARTREE"> T  </i>
   <i type="int" name="IBSE">     0</i>
   <v type="int" name="KPOINT">    -1     0     0     0</v>
   <i type="logical" name="LTCTE"> F  </i>
   <i type="logical" name="LTETE"> F  </i>
   <i type="logical" name="LTRIPLET"> F  </i>
   <i type="logical" name="LFXCEPS"> F  </i>
   <i type="logical" name="LFXHEG"> F  </i>
   <i type="int" name="NATURALO">     2</i>
   <i type="logical" name="L2ORDER"> F  </i>
   <i type="logical" name="LMP2LT"> F  </i>
   <i type="logical" name="LUSEW"> F  </i>
   <i name="ENCUTGW">     -2.00000000</i>
   <i name="ENCUTGWSOFT">     -2.00000000</i>
   <i name="ENCUTLF">     -1.00000000</i>
   <i type="int" name="LMAXMP2">    -1</i>
   <i name="SCISSOR">      0.00000000</i>
   <i type="int" name="NOMEGA">     0</i>
   <i type="int" name="NOMEGAR">     0</i>
   <i type="int" name="NBANDSGW">    -1</i>
   <i type="int" name="NBANDSO">    -1</i>
   <i type="int" name="NBANDSV">    -1</i>
   <i type="int" name="NELM">  1000</i>
   <i type="int" name="NELMHF">     1</i>
   <i type="int" name="DIM">     3</i>
   <i type="int" name="ANTIRES">     0</i>
   <i name="OMEGAMAX">    -30.00000000</i>
   <i name="OMEGAMIN">    -30.00000000</i>
   <i name="OMEGATL">   -200.00000000</i>
   <i type="int" name="OMEGAGRID">   140</i>
   <i name="CSHIFT">     -0.10000000</i>
   <i type="logical" name="SELFENERGY"> F  </i>
   <i type="logical" name="LSPECTRAL"> F  </i>
   <i type="logical" name="LSPECTRALGW"> F  </i>
   <i type="logical" name="LSINGLES"> F  </i>
   <i type="logical" name="LFERMIGW"> F  </i>
   <i type="logical" name="ODDONLYGW"> F  </i>
   <i type="logical" name="EVENONLYGW"> F  </i>
   <i type="int" name="NKREDLFX">     1</i>
   <i type="int" name="NKREDLFY">     1</i>
   <i type="int" name="NKREDLFZ">     1</i>
   <i type="int" name="MAXMEM">  2800</i>
   <i type="int" name="TELESCOPE">     0</i>
   <i type="int" name="TAUPAR">     1</i>
   <i type="int" name="OMEGAPAR">    -1</i>
   <i name="LAMBDA">      1.00000000</i>
  </separator>
  <separator name="External order field" >
   <i name="OFIELD_KAPPA">      0.00000000</i>
   <v name="OFIELD_K">      0.00000000      0.00000000      0.00000000</v>
   <i name="OFIELD_Q6_NEAR">      0.00000000</i>
   <i name="OFIELD_Q6_FAR">      0.00000000</i>
   <i name="OFIELD_A">      0.00000000</i>
  </separator>
 </parameters>
 <atominfo>
  <atoms>      27 </atoms>
  <types>       2 </types>
  <array name="atoms" >
   <dimension dim="1">ion</dimension>
   <field type="string">element</field>
   <field type="int">atomtype</field>
   <set>
    <rc><c>Mo</c><c>   1</c></rc>
    <rc><c>Mo</c><c>   1</c></rc>
    <rc><c>Mo</c><c>   1</c></rc>
    <rc><c>Mo</c><c>   1</c></rc>
    <rc><c>Mo</c><c>   1</c></rc>
    <rc><c>Mo</c><c>   1</c></rc>
    <rc><c>Mo</c><c>   1</c></rc>
    <rc><c>Mo</c><c>   1</c></rc>
    <rc><c>Mo</c><c>   1</c></rc>
    <rc><c>S </c><c>   2</c></rc>
    <rc><c>S </c><c>   2</c></rc>
    <rc><c>S </c><c>   2</c></rc>
    <rc><c>S </c><c>   2</c></rc>
    <rc><c>S </c><c>   2</c></rc>
    <rc><c>S </c><c>   2</c></rc>
    <rc><c>S </c><c>   2</c></rc>
    <rc><c>S </c><c>   2</c></rc>
    <rc><c>S </c><c>   2</c></rc>
    <rc><c>S </c><c>   2</c></rc>
    <rc><c>S </c><c>   2</c></rc>
    <rc><c>S </c><c>   2</c></rc>
    <rc><c>S </c><c>   2</c></rc>
    <rc><c>S </c><c>   2</c></rc>
    <rc><c>S </c><c>   2</c></rc>
    <rc><c>S </c><c>   2</c></rc>
    <rc><c>S </c><c>   2</c></rc>
    <rc><c>S </c><c>   2</c></rc>
   </set>
  </array>
  <array name="atomtypes" >
   <dimension dim="1">type</dimension>
   <field type="int">atomspertype</field>
   <field type="string">element</field>
   <field>mass</field>
   <field>valence</field>
   <field type="string">pseudopotential</field>
   <set>
    <rc><c>   9</c><c>Mo</c><c>     95.94000000</c><c>     14.00000000</c><c>  PAW_PBE Mo_sv 02Feb2006               </c></rc>
    <rc><c>  18</c><c>S </c><c>     32.06600000</c><c>      6.00000000</c><c>  PAW_PBE S 06Sep2000                   </c></rc>
   </set>
  </array>
 </atominfo>
 <structure name="initialpos" >
  <crystal>
   <varray name="basis" >
    <v>       9.56424100       0.00000000       0.00000000 </v>
    <v>      -4.78212000       8.28287600       0.00000000 </v>
    <v>      -0.00000000       0.00000000      18.15827300 </v>
   </varray>
   <i name="volume">   1438.48789588 </i>
   <varray name="rec_basis" >
    <v>       0.10455613       0.06036550       0.00000000 </v>
    <v>       0.00000000       0.12073101      -0.00000000 </v>
    <v>       0.00000000      -0.00000000       0.05507132 </v>
   </varray>
  </crystal>
  <varray name="positions" >
   <v>       0.03376371       0.01855966       0.49659714 </v>
   <v>       0.31725084       0.34738159       0.50144467 </v>
   <v>       0.65395073       0.02725073       0.49765782 </v>
   <v>       0.30722886       0.96769100       0.49903825 </v>
   <v>       0.37479642       0.68408261       0.50368955 </v>
   <v>       0.69540513       0.33446840       0.49510898 </v>
   <v>       0.98125620       0.30411678       0.49883155 </v>
   <v>       0.65689738       0.64132801       0.49959944 </v>
   <v>       0.97649210       0.67857273       0.50118415 </v>
   <v>       0.54238243       0.11705844       0.58330405 </v>
   <v>       0.23589432       0.11042302       0.58663569 </v>
   <v>       0.12059895       0.22938747       0.40848419 </v>
   <v>       0.21841302       0.44656584       0.58512282 </v>
   <v>       0.11044569       0.55443900       0.43924484 </v>
   <v>       0.21527695       0.76304111       0.58452631 </v>
   <v>       0.10476076       0.87742175       0.41171100 </v>
   <v>       0.42633883       0.21185942       0.42422590 </v>
   <v>       0.44945911       0.89102353       0.41132289 </v>
   <v>       0.54485828       0.43222866       0.58364669 </v>
   <v>       0.57292950       0.79618353       0.58862704 </v>
   <v>       0.44392858       0.56894901       0.40792686 </v>
   <v>       0.88470556       0.09674119       0.58410318 </v>
   <v>       0.78718651       0.22018209       0.40473441 </v>
   <v>       0.89379977       0.44156573       0.58358286 </v>
   <v>       0.77271304       0.54696581       0.41073244 </v>
   <v>       0.89213672       0.79488163       0.59060970 </v>
   <v>       0.79302410       0.89075603       0.43194934 </v>
  </varray>
 </structure>
 <calculation>
  <scstep>
   <time name="dav">   83.45   83.85</time>
   <time name="total">   84.04   84.45</time>
   <energy>
    <i name="alphaZ">    266.37941352 </i>
    <i name="ewald">  40800.49753961 </i>
    <i name="hartreedc"> -59847.04258360 </i>
    <i name="XCdc">    823.38117808 </i>
    <i name="pawpsdc">  17395.10119161 </i>
    <i name="pawaedc"> -17171.31696658 </i>
    <i name="eentropy">     -0.01692053 </i>
    <i name="bandstr">  -1765.66030352 </i>
    <i name="atom">  21743.34108040 </i>
    <i name="e_fr_energy">   2244.66362899 </i>
    <i name="e_wo_entrp">   2244.68054952 </i>
    <i name="e_0_energy">   2244.67208925 </i>
   </energy>
  </scstep>
  <scstep>
   <time name="dav">   89.76   90.16</time>
   <time name="total">   89.76   90.17</time>
   <energy>
    <i name="e_fr_energy">     16.32420286 </i>
    <i name="e_wo_entrp">     16.32664342 </i>
    <i name="e_0_energy">     16.32542314 </i>
   </energy>
  </scstep>
  <scstep>
   <time name="dav">   79.09   79.47</time>
   <time name="total">   79.09   79.47</time>
   <energy>
    <i name="e_fr_energy">   -195.06710590 </i>
    <i name="e_wo_entrp">   -195.06710590 </i>
    <i name="e_0_energy">   -195.06710590 </i>
   </energy>
  </scstep>
  <scstep>
   <time name="dav">   86.97   87.39</time>
   <time name="total">   86.97   87.39</time>
   <energy>
    <i name="e_fr_energy">   -203.35290087 </i>
    <i name="e_wo_entrp">   -203.35290087 </i>
    <i name="e_0_energy">   -203.35290087 </i>
   </energy>
  </scstep>
  <scstep>
   <time name="dav">   92.36   92.80</time>
   <time name="total">   98.77   99.24</time>
   <energy>
    <i name="e_fr_energy">   -203.62112864 </i>
    <i name="e_wo_entrp">   -203.62112864 </i>
    <i name="e_0_energy">   -203.62112864 </i>
   </energy>
  </scstep>
  <scstep>
   <time name="dav">   76.78   77.16</time>
   <time name="total">   83.76   84.16</time>
   <energy>
    <i name="e_fr_energy">   -194.13416266 </i>
    <i name="e_wo_entrp">   -194.13416266 </i>
    <i name="e_0_energy">   -194.13416266 </i>
   </energy>
  </scstep>
  <scstep>
   <time name="dav">   75.24   75.61</time>
   <time name="total">   82.19   82.58</time>
   <energy>
    <i name="e_fr_energy">   -193.14176699 </i>
    <i name="e_wo_entrp">   -193.14176699 </i>
    <i name="e_0_energy">   -193.14176699 </i>
   </energy>
  </scstep>
  <scstep>
   <time name="dav">   77.10   77.48</time>
   <time name="total">   84.03   84.43</time>
   <energy>
    <i name="e_fr_energy">   -190.60413552 </i>
    <i name="e_wo_entrp">   -190.60413552 </i>
    <i name="e_0_energy">   -190.60413552 </i>
   </energy>
  </scstep>
  <scstep>
   <time name="dav">   84.66   85.08</time>
   <time name="total">   91.59   92.02</time>
   <energy>
    <i name="e_fr_energy">   -190.40991832 </i>
    <i name="e_wo_entrp">   -190.40991832 </i>
    <i name="e_0_energy">   -190.40991832 </i>
   </energy>
  </scstep>
  <scstep>
   <time name="dav">   78.52   78.90</time>
   <time name="total">   85.39   85.80</time>
   <energy>
    <i name="e_fr_energy">   -190.32436544 </i>
    <i name="e_wo_entrp">   -190.32436544 </i>
    <i name="e_0_energy">   -190.32436544 </i>
   </energy>
  </scstep>
  <scstep>
   <time name="dav">   83.30   83.70</time>
   <time name="total">   90.04   90.47</time>
   <energy>
    <i name="e_fr_energy">   -190.30807052 </i>
    <i name="e_wo_entrp">   -190.30807052 </i>
    <i name="e_0_energy">   -190.30807052 </i>
   </energy>
  </scstep>
  <scstep>
   <time name="dav">   78.87   79.27</time>
   <time name="total">   85.60   86.02</time>
   <energy>
    <i name="e_fr_energy">   -190.29610594 </i>
    <i name="e_wo_entrp">   -190.29610594 </i>
    <i name="e_0_energy">   -190.29610594 </i>
   </energy>
  </scstep>
  <scstep>
   <time name="dav">   77.70   78.10</time>
   <time name="total">   84.46   84.88</time>
   <energy>
    <i name="e_fr_energy">   -190.28953362 </i>
    <i name="e_wo_entrp">   -190.28953362 </i>
    <i name="e_0_energy">   -190.28953362 </i>
   </energy>
  </scstep>
  <scstep>
   <time name="dav">   83.93   84.34</time>
   <time name="total">   90.67   91.11</time>
   <energy>
    <i name="e_fr_energy">   -190.28834875 </i>
    <i name="e_wo_entrp">   -190.28834875 </i>
    <i name="e_0_energy">   -190.28834875 </i>
   </energy>
  </scstep>
  <scstep>
   <time name="dav">   81.16   81.56</time>
   <time name="total">   87.90   88.33</time>
   <energy>
    <i name="e_fr_energy">   -190.28781079 </i>
    <i name="e_wo_entrp">   -190.28781079 </i>
    <i name="e_0_energy">   -190.28781079 </i>
   </energy>
  </scstep>
  <scstep>
   <time name="dav">   80.33   80.73</time>
   <time name="total">   87.06   87.50</time>
   <energy>
    <i name="e_fr_energy">   -190.28752205 </i>
    <i name="e_wo_entrp">   -190.28752205 </i>
    <i name="e_0_energy">   -190.28752205 </i>
   </energy>
  </scstep>
  <scstep>
   <time name="dav">   82.43   82.84</time>
   <time name="total">   89.16   89.60</time>
   <energy>
    <i name="e_fr_energy">   -190.28772956 </i>
    <i name="e_wo_entrp">   -190.28772956 </i>
    <i name="e_0_energy">   -190.28772956 </i>
   </energy>
  </scstep>
  <scstep>
   <time name="dav">   84.52   84.94</time>
   <time name="total">   91.27   91.71</time>
   <energy>
    <i name="e_fr_energy">   -190.28804400 </i>
    <i name="e_wo_entrp">   -190.28804400 </i>
    <i name="e_0_energy">   -190.28804400 </i>
   </energy>
  </scstep>
  <scstep>
   <time name="dav">   77.33   77.71</time>
   <time name="total">   84.09   84.50</time>
   <energy>
    <i name="e_fr_energy">   -190.28861065 </i>
    <i name="e_wo_entrp">   -190.28861065 </i>
    <i name="e_0_energy">   -190.28861065 </i>
   </energy>
  </scstep>
  <scstep>
   <time name="dav">   76.38   76.74</time>
   <time name="total">   83.16   83.55</time>
   <energy>
    <i name="e_fr_energy">   -190.28899578 </i>
    <i name="e_wo_entrp">   -190.28899578 </i>
    <i name="e_0_energy">   -190.28899578 </i>
   </energy>
  </scstep>
  <scstep>
   <time name="dav">   81.44   81.90</time>
   <time name="total">   88.21   88.69</time>
   <energy>
    <i name="e_fr_energy">   -190.28909474 </i>
    <i name="e_wo_entrp">   -190.28909474 </i>
    <i name="e_0_energy">   -190.28909474 </i>
   </energy>
  </scstep>
  <scstep>
   <time name="dav">   69.75   70.14</time>
   <time name="total">   76.52   76.94</time>
   <energy>
    <i name="e_fr_energy">   -190.28921862 </i>
    <i name="e_wo_entrp">   -190.28921862 </i>
    <i name="e_0_energy">   -190.28921862 </i>
   </energy>
  </scstep>
  <scstep>
   <time name="dav">   69.60   69.94</time>
   <time name="total">   76.38   76.75</time>
   <energy>
    <i name="e_fr_energy">   -190.28933264 </i>
    <i name="e_wo_entrp">   -190.28933264 </i>
    <i name="e_0_energy">   -190.28933264 </i>
   </energy>
  </scstep>
  <scstep>
   <time name="dav">   63.11   63.41</time>
   <time name="total">   69.87   70.20</time>
   <energy>
    <i name="e_fr_energy">   -190.28940733 </i>
    <i name="e_wo_entrp">   -190.28940733 </i>
    <i name="e_0_energy">   -190.28940733 </i>
   </energy>
  </scstep>
  <scstep>
   <time name="dav">   60.37   60.65</time>
   <time name="total">   67.12   67.43</time>
   <energy>
    <i name="e_fr_energy">   -190.28946526 </i>
    <i name="e_wo_entrp">   -190.28946526 </i>
    <i name="e_0_energy">   -190.28946526 </i>
   </energy>
  </scstep>
  <scstep>
   <time name="dav">   59.13   59.39</time>
   <time name="total">   65.86   66.15</time>
   <energy>
    <i name="e_fr_energy">   -190.28958065 </i>
    <i name="e_wo_entrp">   -190.28958065 </i>
    <i name="e_0_energy">   -190.28958065 </i>
   </energy>
  </scstep>
  <scstep>
   <time name="dav">   61.28   61.57</time>
   <time name="total">   68.05   68.37</time>
   <energy>
    <i name="e_fr_energy">   -190.28964191 </i>
    <i name="e_wo_entrp">   -190.28964191 </i>
    <i name="e_0_energy">   -190.28964191 </i>
   </energy>
  </scstep>
  <scstep>
   <time name="dav">   57.58   57.85</time>
   <time name="total">   64.33   64.62</time>
   <energy>
    <i name="e_fr_energy">   -190.28967455 </i>
    <i name="e_wo_entrp">   -190.28967455 </i>
    <i name="e_0_energy">   -190.28967455 </i>
   </energy>
  </scstep>
  <scstep>
   <time name="dav">   59.21   59.53</time>
   <time name="total">   65.91   66.26</time>
   <energy>
    <i name="e_fr_energy">   -190.28970243 </i>
    <i name="e_wo_entrp">   -190.28970243 </i>
    <i name="e_0_energy">   -190.28970243 </i>
   </energy>
  </scstep>
  <scstep>
   <time name="dav">   56.91   57.21</time>
   <time name="total">   63.60   63.93</time>
   <energy>
    <i name="e_fr_energy">   -190.28971750 </i>
    <i name="e_wo_entrp">   -190.28971750 </i>
    <i name="e_0_energy">   -190.28971750 </i>
   </energy>
  </scstep>
  <scstep>
   <time name="dav">   48.31   48.59</time>
   <time name="total">   55.19   55.50</time>
   <energy>
    <i name="e_fr_energy">   -190.28972185 </i>
    <i name="e_wo_entrp">   -190.28972185 </i>
    <i name="e_0_energy">   -190.28972185 </i>
   </energy>
  </scstep>
  <scstep>
   <time name="dav">   46.51   46.77</time>
   <time name="total">   53.43   53.72</time>
   <energy>
    <i name="e_fr_energy">   -190.28972363 </i>
    <i name="e_wo_entrp">   -190.28972363 </i>
    <i name="e_0_energy">   -190.28972363 </i>
   </energy>
  </scstep>
  <scstep>
   <time name="dav">   45.09   45.35</time>
   <time name="total">   45.63   45.89</time>
   <energy>
    <i name="alphaZ">    266.37941352 </i>
    <i name="ewald">  40800.49753961 </i>
    <i name="hartreedc"> -59832.50624441 </i>
    <i name="XCdc">    818.92410824 </i>
    <i name="pawpsdc">  26929.83653285 </i>
    <i name="pawaedc"> -26741.29996094 </i>
    <i name="eentropy">     -0.00000000 </i>
    <i name="bandstr">  -4175.46219360 </i>
    <i name="atom">  21743.34108040 </i>
    <i name="e_fr_energy">   -190.28972433 </i>
    <i name="e_wo_entrp">   -190.28972433 </i>
    <i name="e_0_energy">   -190.28972433 </i>
   </energy>
  </scstep>
  <structure>
   <crystal>
    <varray name="basis" >
     <v>       9.56424100       0.00000000       0.00000000 </v>
     <v>      -4.78212000       8.28287600       0.00000000 </v>
     <v>      -0.00000000       0.00000000      18.15827300 </v>
    </varray>
    <i name="volume">   1438.48789588 </i>
    <varray name="rec_basis" >
     <v>       0.10455613       0.06036550       0.00000000 </v>
     <v>       0.00000000       0.12073101      -0.00000000 </v>
     <v>       0.00000000      -0.00000000       0.05507132 </v>
    </varray>
   </crystal>
   <varray name="positions" >
    <v>       0.03376371       0.01855966       0.49659714 </v>
    <v>       0.31725084       0.34738159       0.50144467 </v>
    <v>       0.65395073       0.02725073       0.49765782 </v>
    <v>       0.30722886       0.96769100       0.49903825 </v>
    <v>       0.37479642       0.68408261       0.50368955 </v>
    <v>       0.69540513       0.33446840       0.49510898 </v>
    <v>       0.98125620       0.30411678       0.49883155 </v>
    <v>       0.65689738       0.64132801       0.49959944 </v>
    <v>       0.97649210       0.67857273       0.50118415 </v>
    <v>       0.54238243       0.11705844       0.58330405 </v>
    <v>       0.23589432       0.11042302       0.58663569 </v>
    <v>       0.12059895       0.22938747       0.40848419 </v>
    <v>       0.21841302       0.44656584       0.58512282 </v>
    <v>       0.11044569       0.55443900       0.43924484 </v>
    <v>       0.21527695       0.76304111       0.58452631 </v>
    <v>       0.10476076       0.87742175       0.41171100 </v>
    <v>       0.42633883       0.21185942       0.42422590 </v>
    <v>       0.44945911       0.89102353       0.41132289 </v>
    <v>       0.54485828       0.43222866       0.58364669 </v>
    <v>       0.57292950       0.79618353       0.58862704 </v>
    <v>       0.44392858       0.56894901       0.40792686 </v>
    <v>       0.88470556       0.09674119       0.58410318 </v>
    <v>       0.78718651       0.22018209       0.40473441 </v>
    <v>       0.89379977       0.44156573       0.58358286 </v>
    <v>       0.77271304       0.54696581       0.41073244 </v>
    <v>       0.89213672       0.79488163       0.59060970 </v>
    <v>       0.79302410       0.89075603       0.43194934 </v>
   </varray>
  </structure>
  <varray name="forces" >
   <v>       0.99462435       0.38873069       1.08799095 </v>
   <v>       0.15035639       0.70448995      -1.43815298 </v>
   <v>       0.90789356      -1.24377195       0.42187279 </v>
   <v>       1.08440753      -0.67980408      -0.10321293 </v>
   <v>      -0.86925555       0.34420391      -0.58211520 </v>
   <v>      -0.74925933       0.74338285       0.25756743 </v>
   <v>       0.76214168      -1.39499970       0.19468032 </v>
   <v>      -0.67868724      -0.76927724       0.27889802 </v>
   <v>       0.16934800       0.38192080       0.92038534 </v>
   <v>       0.38555761       0.16425474       0.33596347 </v>
   <v>      -0.72733051       0.48095392       0.15438428 </v>
   <v>      -0.45791584      -0.16056411      -0.32661335 </v>
   <v>      -0.45850023       0.35834353       1.20776464 </v>
   <v>       0.30566991       0.81509347      -0.96408774 </v>
   <v>      -0.33413626       0.06473218       0.72937680 </v>
   <v>      -0.19951277       0.15005973      -1.57185984 </v>
   <v>       1.09985607       0.69765566       0.39257424 </v>
   <v>      -0.34020817      -0.24961801      -0.39429368 </v>
   <v>       0.85547687       0.30670112       0.37298401 </v>
   <v>       0.31052719      -0.21777554       0.15647425 </v>
   <v>       0.87211305      -0.86691740       0.42079350 </v>
   <v>      -0.26723869       0.42142461       0.22102668 </v>
   <v>      -0.53153809       0.16255304      -0.50709843 </v>
   <v>      -0.26438093       0.02525319       0.65686452 </v>
   <v>      -0.21400389       0.26588646      -0.87528726 </v>
   <v>      -0.04611657      -0.79224224      -0.54002669 </v>
   <v>      -1.75988811      -0.10066959      -0.50685316 </v>
  </varray>
  <varray name="stress" >
   <v>      21.29537735       0.19478310       0.86935008 </v>
   <v>       0.19478311      20.49402430       0.71611739 </v>
   <v>       0.86935001       0.71611735      12.32584068 </v>
  </varray>
  <energy>
   <i name="e_fr_energy">   -190.28972433 </i>
   <i name="e_wo_entrp">   -190.28972433 </i>
   <i name="e_0_energy">     -0.00000000 </i>
  </energy>
  <time name="totalsc"> 2721.78 2735.09</time>
  <eigenvalues>
   <array>
    <dimension dim="1">band</dimension>
    <dimension dim="2">kpoint</dimension>
    <dimension dim="3">spin</dimension>
    <field>eigene</field>
    <field>occ</field>
    <set>
     <set comment="spin 1">
      <set comment="kpoint 1">
       <r>  -62.6019    1.0000 </r>
       <r>  -62.5088    1.0000 </r>
       <r>  -62.4901    1.0000 </r>
       <r>  -62.4789    1.0000 </r>
       <r>  -62.4315    1.0000 </r>
       <r>  -62.3934    1.0000 </r>
       <r>  -62.3711    1.0000 </r>
       <r>  -62.3502    1.0000 </r>
       <r>  -62.3149    1.0000 </r>
       <r>  -36.9397    1.0000 </r>
       <r>  -36.8923    1.0000 </r>
       <r>  -36.8771    1.0000 </r>
       <r>  -36.8378    1.0000 </r>
       <r>  -36.8303    1.0000 </r>
       <r>  -36.7977    1.0000 </r>
       <r>  -36.7728    1.0000 </r>
       <r>  -36.7536    1.0000 </r>
       <r>  -36.6993    1.0000 </r>
       <r>  -36.6887    1.0000 </r>
       <r>  -36.5988    1.0000 </r>
       <r>  -36.5892    1.0000 </r>
       <r>  -36.5757    1.0000 </r>
       <r>  -36.5480    1.0000 </r>
       <r>  -36.5222    1.0000 </r>
       <r>  -36.5113    1.0000 </r>
       <r>  -36.5018    1.0000 </r>
       <r>  -36.4819    1.0000 </r>
       <r>  -36.4655    1.0000 </r>
       <r>  -36.4494    1.0000 </r>
       <r>  -36.4322    1.0000 </r>
       <r>  -36.4149    1.0000 </r>
       <r>  -36.4056    1.0000 </r>
       <r>  -36.3753    1.0000 </r>
       <r>  -36.3735    1.0000 </r>
       <r>  -36.3332    1.0000 </r>
       <r>  -36.2870    1.0000 </r>
       <r>  -15.7127    1.0000 </r>
       <r>  -14.6071    1.0000 </r>
       <r>  -14.5627    1.0000 </r>
       <r>  -14.4921    1.0000 </r>
       <r>  -14.4381    1.0000 </r>
       <r>  -14.4061    1.0000 </r>
       <r>  -14.3736    1.0000 </r>
       <r>  -14.3041    1.0000 </r>
       <r>  -14.0284    1.0000 </r>
       <r>  -14.0248    1.0000 </r>
       <r>  -13.9802    1.0000 </r>
       <r>  -13.9009    1.0000 </r>
       <r>  -13.7337    1.0000 </r>
       <r>  -13.6102    1.0000 </r>
       <r>  -13.5893    1.0000 </r>
       <r>  -13.5653    1.0000 </r>
       <r>  -13.4881    1.0000 </r>
       <r>  -13.1262    1.0000 </r>
       <r>   -7.1423    1.0000 </r>
       <r>   -6.9034    1.0000 </r>
       <r>   -6.8855    1.0000 </r>
       <r>   -6.8413    1.0000 </r>
       <r>   -6.7902    1.0000 </r>
       <r>   -6.6671    1.0000 </r>
       <r>   -6.5966    1.0000 </r>
       <r>   -6.5653    1.0000 </r>
       <r>   -6.5580    1.0000 </r>
       <r>   -6.5088    1.0000 </r>
       <r>   -6.4638    1.0000 </r>
       <r>   -6.4077    1.0000 </r>
       <r>   -6.3608    1.0000 </r>
       <r>   -6.2864    1.0000 </r>
       <r>   -6.2725    1.0000 </r>
       <r>   -6.1510    1.0000 </r>
       <r>   -6.0855    1.0000 </r>
       <r>   -6.0490    1.0000 </r>
       <r>   -5.9693    1.0000 </r>
       <r>   -5.4652    1.0000 </r>
       <r>   -5.4413    1.0000 </r>
       <r>   -5.4092    1.0000 </r>
       <r>   -5.3642    1.0000 </r>
       <r>   -5.2355    1.0000 </r>
       <r>   -5.0931    1.0000 </r>
       <r>   -4.9241    1.0000 </r>
       <r>   -4.8106    1.0000 </r>
       <r>   -4.7377    1.0000 </r>
       <r>   -4.7006    1.0000 </r>
       <r>   -4.6857    1.0000 </r>
       <r>   -4.6509    1.0000 </r>
       <r>   -4.6173    1.0000 </r>
       <r>   -4.6023    1.0000 </r>
       <r>   -4.4958    1.0000 </r>
       <r>   -4.4558    1.0000 </r>
       <r>   -4.4120    1.0000 </r>
       <r>   -4.2730    1.0000 </r>
       <r>   -4.2162    1.0000 </r>
       <r>   -4.1363    1.0000 </r>
       <r>   -3.7952    1.0000 </r>
       <r>   -3.7495    1.0000 </r>
       <r>   -3.6521    1.0000 </r>
       <r>   -3.6403    1.0000 </r>
       <r>   -3.5254    1.0000 </r>
       <r>   -3.4197    1.0000 </r>
       <r>   -3.2104    1.0000 </r>
       <r>   -3.1376    1.0000 </r>
       <r>   -2.9734    1.0000 </r>
       <r>   -2.9417    1.0000 </r>
       <r>   -2.8360    1.0000 </r>
       <r>   -2.8000    1.0000 </r>
       <r>   -2.7669    1.0000 </r>
       <r>   -2.5664    1.0000 </r>
       <r>   -2.4751    1.0000 </r>
       <r>   -2.3977    1.0000 </r>
       <r>   -2.3362    1.0000 </r>
       <r>   -2.0103    1.0000 </r>
       <r>   -1.9462    1.0000 </r>
       <r>   -1.8712    1.0000 </r>
       <r>   -1.8447    1.0000 </r>
       <r>   -1.7387    1.0000 </r>
       <r>   -1.5391    1.0000 </r>
       <r>   -1.4374    1.0000 </r>
       <r>   -0.7341    0.0000 </r>
       <r>   -0.4336    0.0000 </r>
       <r>   -0.2899    0.0000 </r>
       <r>   -0.1923    0.0000 </r>
       <r>   -0.1518    0.0000 </r>
       <r>   -0.1141    0.0000 </r>
       <r>   -0.0691    0.0000 </r>
       <r>    0.0332    0.0000 </r>
       <r>    0.0826    0.0000 </r>
       <r>    0.2695    0.0000 </r>
       <r>    0.6253    0.0000 </r>
       <r>    0.7478    0.0000 </r>
       <r>    0.7795    0.0000 </r>
       <r>    0.8213    0.0000 </r>
       <r>    0.9270    0.0000 </r>
       <r>    0.9501    0.0000 </r>
       <r>    1.0941    0.0000 </r>
       <r>    1.1614    0.0000 </r>
       <r>    1.5119    0.0000 </r>
       <r>    1.8172    0.0000 </r>
       <r>    1.8984    0.0000 </r>
       <r>    1.9452    0.0000 </r>
       <r>    1.9612    0.0000 </r>
      </set>
      <set comment="kpoint 2">
       <r>  -62.6019    1.0000 </r>
       <r>  -62.5089    1.0000 </r>
       <r>  -62.4901    1.0000 </r>
       <r>  -62.4788    1.0000 </r>
       <r>  -62.4316    1.0000 </r>
       <r>  -62.3931    1.0000 </r>
       <r>  -62.3713    1.0000 </r>
       <r>  -62.3502    1.0000 </r>
       <r>  -62.3149    1.0000 </r>
       <r>  -36.9422    1.0000 </r>
       <r>  -36.9035    1.0000 </r>
       <r>  -36.8838    1.0000 </r>
       <r>  -36.8517    1.0000 </r>
       <r>  -36.8178    1.0000 </r>
       <r>  -36.7887    1.0000 </r>
       <r>  -36.7674    1.0000 </r>
       <r>  -36.7372    1.0000 </r>
       <r>  -36.6936    1.0000 </r>
       <r>  -36.6840    1.0000 </r>
       <r>  -36.6023    1.0000 </r>
       <r>  -36.5913    1.0000 </r>
       <r>  -36.5775    1.0000 </r>
       <r>  -36.5494    1.0000 </r>
       <r>  -36.5291    1.0000 </r>
       <r>  -36.5164    1.0000 </r>
       <r>  -36.5041    1.0000 </r>
       <r>  -36.4842    1.0000 </r>
       <r>  -36.4608    1.0000 </r>
       <r>  -36.4474    1.0000 </r>
       <r>  -36.4326    1.0000 </r>
       <r>  -36.4152    1.0000 </r>
       <r>  -36.4040    1.0000 </r>
       <r>  -36.3747    1.0000 </r>
       <r>  -36.3726    1.0000 </r>
       <r>  -36.3356    1.0000 </r>
       <r>  -36.2879    1.0000 </r>
       <r>  -15.6653    1.0000 </r>
       <r>  -14.7359    1.0000 </r>
       <r>  -14.6484    1.0000 </r>
       <r>  -14.5054    1.0000 </r>
       <r>  -14.4806    1.0000 </r>
       <r>  -14.3672    1.0000 </r>
       <r>  -14.2827    1.0000 </r>
       <r>  -14.2359    1.0000 </r>
       <r>  -14.0923    1.0000 </r>
       <r>  -14.0555    1.0000 </r>
       <r>  -13.9155    1.0000 </r>
       <r>  -13.8369    1.0000 </r>
       <r>  -13.7691    1.0000 </r>
       <r>  -13.6495    1.0000 </r>
       <r>  -13.5633    1.0000 </r>
       <r>  -13.5414    1.0000 </r>
       <r>  -13.4452    1.0000 </r>
       <r>  -13.1282    1.0000 </r>
       <r>   -7.2129    1.0000 </r>
       <r>   -7.0938    1.0000 </r>
       <r>   -7.0069    1.0000 </r>
       <r>   -6.9515    1.0000 </r>
       <r>   -6.8564    1.0000 </r>
       <r>   -6.8228    1.0000 </r>
       <r>   -6.6825    1.0000 </r>
       <r>   -6.5809    1.0000 </r>
       <r>   -6.5431    1.0000 </r>
       <r>   -6.4848    1.0000 </r>
       <r>   -6.4539    1.0000 </r>
       <r>   -6.2996    1.0000 </r>
       <r>   -6.2664    1.0000 </r>
       <r>   -6.1464    1.0000 </r>
       <r>   -6.0579    1.0000 </r>
       <r>   -6.0015    1.0000 </r>
       <r>   -5.9092    1.0000 </r>
       <r>   -5.8214    1.0000 </r>
       <r>   -5.7354    1.0000 </r>
       <r>   -5.6767    1.0000 </r>
       <r>   -5.5902    1.0000 </r>
       <r>   -5.3672    1.0000 </r>
       <r>   -5.2654    1.0000 </r>
       <r>   -5.1835    1.0000 </r>
       <r>   -5.1612    1.0000 </r>
       <r>   -5.1167    1.0000 </r>
       <r>   -4.9769    1.0000 </r>
       <r>   -4.8597    1.0000 </r>
       <r>   -4.7773    1.0000 </r>
       <r>   -4.7046    1.0000 </r>
       <r>   -4.6820    1.0000 </r>
       <r>   -4.5327    1.0000 </r>
       <r>   -4.5146    1.0000 </r>
       <r>   -4.4622    1.0000 </r>
       <r>   -4.3879    1.0000 </r>
       <r>   -4.3066    1.0000 </r>
       <r>   -4.2699    1.0000 </r>
       <r>   -4.2130    1.0000 </r>
       <r>   -4.1598    1.0000 </r>
       <r>   -3.8310    1.0000 </r>
       <r>   -3.7712    1.0000 </r>
       <r>   -3.7213    1.0000 </r>
       <r>   -3.6473    1.0000 </r>
       <r>   -3.5790    1.0000 </r>
       <r>   -3.4724    1.0000 </r>
       <r>   -3.1869    1.0000 </r>
       <r>   -3.1472    1.0000 </r>
       <r>   -2.9972    1.0000 </r>
       <r>   -2.9404    1.0000 </r>
       <r>   -2.8684    1.0000 </r>
       <r>   -2.7101    1.0000 </r>
       <r>   -2.6587    1.0000 </r>
       <r>   -2.5521    1.0000 </r>
       <r>   -2.4194    1.0000 </r>
       <r>   -2.3256    1.0000 </r>
       <r>   -2.2551    1.0000 </r>
       <r>   -2.1015    1.0000 </r>
       <r>   -1.9802    1.0000 </r>
       <r>   -1.9250    1.0000 </r>
       <r>   -1.8400    1.0000 </r>
       <r>   -1.7703    1.0000 </r>
       <r>   -1.6010    1.0000 </r>
       <r>   -1.4702    1.0000 </r>
       <r>   -0.7420    0.0000 </r>
       <r>   -0.3849    0.0000 </r>
       <r>   -0.2912    0.0000 </r>
       <r>   -0.1978    0.0000 </r>
       <r>   -0.1536    0.0000 </r>
       <r>   -0.1397    0.0000 </r>
       <r>   -0.0373    0.0000 </r>
       <r>    0.0918    0.0000 </r>
       <r>    0.1317    0.0000 </r>
       <r>    0.3009    0.0000 </r>
       <r>    0.5747    0.0000 </r>
       <r>    0.6620    0.0000 </r>
       <r>    0.7712    0.0000 </r>
       <r>    0.8909    0.0000 </r>
       <r>    1.0048    0.0000 </r>
       <r>    1.0407    0.0000 </r>
       <r>    1.0907    0.0000 </r>
       <r>    1.2112    0.0000 </r>
       <r>    1.4412    0.0000 </r>
       <r>    1.5458    0.0000 </r>
       <r>    1.7101    0.0000 </r>
       <r>    1.8142    0.0000 </r>
       <r>    1.9642    0.0000 </r>
      </set>
      <set comment="kpoint 3">
       <r>  -62.6018    1.0000 </r>
       <r>  -62.5089    1.0000 </r>
       <r>  -62.4903    1.0000 </r>
       <r>  -62.4786    1.0000 </r>
       <r>  -62.4320    1.0000 </r>
       <r>  -62.3926    1.0000 </r>
       <r>  -62.3715    1.0000 </r>
       <r>  -62.3501    1.0000 </r>
       <r>  -62.3149    1.0000 </r>
       <r>  -36.9457    1.0000 </r>
       <r>  -36.9212    1.0000 </r>
       <r>  -36.8995    1.0000 </r>
       <r>  -36.8610    1.0000 </r>
       <r>  -36.8015    1.0000 </r>
       <r>  -36.7784    1.0000 </r>
       <r>  -36.7597    1.0000 </r>
       <r>  -36.7065    1.0000 </r>
       <r>  -36.6809    1.0000 </r>
       <r>  -36.6685    1.0000 </r>
       <r>  -36.6205    1.0000 </r>
       <r>  -36.5923    1.0000 </r>
       <r>  -36.5816    1.0000 </r>
       <r>  -36.5586    1.0000 </r>
       <r>  -36.5369    1.0000 </r>
       <r>  -36.5183    1.0000 </r>
       <r>  -36.5070    1.0000 </r>
       <r>  -36.4914    1.0000 </r>
       <r>  -36.4558    1.0000 </r>
       <r>  -36.4447    1.0000 </r>
       <r>  -36.4340    1.0000 </r>
       <r>  -36.4165    1.0000 </r>
       <r>  -36.4007    1.0000 </r>
       <r>  -36.3749    1.0000 </r>
       <r>  -36.3704    1.0000 </r>
       <r>  -36.3390    1.0000 </r>
       <r>  -36.2897    1.0000 </r>
       <r>  -15.5273    1.0000 </r>
       <r>  -15.0256    1.0000 </r>
       <r>  -14.7129    1.0000 </r>
       <r>  -14.5478    1.0000 </r>
       <r>  -14.4518    1.0000 </r>
       <r>  -14.3500    1.0000 </r>
       <r>  -14.2215    1.0000 </r>
       <r>  -14.1364    1.0000 </r>
       <r>  -14.1123    1.0000 </r>
       <r>  -14.0332    1.0000 </r>
       <r>  -13.9109    1.0000 </r>
       <r>  -13.8423    1.0000 </r>
       <r>  -13.7610    1.0000 </r>
       <r>  -13.7273    1.0000 </r>
       <r>  -13.5658    1.0000 </r>
       <r>  -13.4442    1.0000 </r>
       <r>  -13.3668    1.0000 </r>
       <r>  -13.1298    1.0000 </r>
       <r>   -7.5804    1.0000 </r>
       <r>   -7.1938    1.0000 </r>
       <r>   -7.1382    1.0000 </r>
       <r>   -7.0409    1.0000 </r>
       <r>   -6.9781    1.0000 </r>
       <r>   -6.8808    1.0000 </r>
       <r>   -6.6510    1.0000 </r>
       <r>   -6.5146    1.0000 </r>
       <r>   -6.4811    1.0000 </r>
       <r>   -6.3979    1.0000 </r>
       <r>   -6.3418    1.0000 </r>
       <r>   -6.2789    1.0000 </r>
       <r>   -6.2208    1.0000 </r>
       <r>   -6.0929    1.0000 </r>
       <r>   -5.9444    1.0000 </r>
       <r>   -5.8894    1.0000 </r>
       <r>   -5.8628    1.0000 </r>
       <r>   -5.6942    1.0000 </r>
       <r>   -5.6013    1.0000 </r>
       <r>   -5.4144    1.0000 </r>
       <r>   -5.3733    1.0000 </r>
       <r>   -5.3433    1.0000 </r>
       <r>   -5.2891    1.0000 </r>
       <r>   -5.2332    1.0000 </r>
       <r>   -5.1846    1.0000 </r>
       <r>   -5.1327    1.0000 </r>
       <r>   -5.0649    1.0000 </r>
       <r>   -4.9953    1.0000 </r>
       <r>   -4.9234    1.0000 </r>
       <r>   -4.7904    1.0000 </r>
       <r>   -4.7316    1.0000 </r>
       <r>   -4.5362    1.0000 </r>
       <r>   -4.4823    1.0000 </r>
       <r>   -4.4521    1.0000 </r>
       <r>   -4.3681    1.0000 </r>
       <r>   -4.2968    1.0000 </r>
       <r>   -4.1787    1.0000 </r>
       <r>   -4.0828    1.0000 </r>
       <r>   -4.0380    1.0000 </r>
       <r>   -3.9715    1.0000 </r>
       <r>   -3.8872    1.0000 </r>
       <r>   -3.8499    1.0000 </r>
       <r>   -3.7778    1.0000 </r>
       <r>   -3.7244    1.0000 </r>
       <r>   -3.3667    1.0000 </r>
       <r>   -3.3272    1.0000 </r>
       <r>   -3.2652    1.0000 </r>
       <r>   -2.8963    1.0000 </r>
       <r>   -2.8642    1.0000 </r>
       <r>   -2.7677    1.0000 </r>
       <r>   -2.6357    1.0000 </r>
       <r>   -2.5914    1.0000 </r>
       <r>   -2.5239    1.0000 </r>
       <r>   -2.4083    1.0000 </r>
       <r>   -2.2757    1.0000 </r>
       <r>   -2.1973    1.0000 </r>
       <r>   -2.1420    1.0000 </r>
       <r>   -2.0147    1.0000 </r>
       <r>   -1.9462    1.0000 </r>
       <r>   -1.8590    1.0000 </r>
       <r>   -1.7661    1.0000 </r>
       <r>   -1.6871    1.0000 </r>
       <r>   -1.5383    1.0000 </r>
       <r>   -0.7292    0.0000 </r>
       <r>   -0.5005    0.0000 </r>
       <r>   -0.2583    0.0000 </r>
       <r>   -0.1974    0.0000 </r>
       <r>   -0.1197    0.0000 </r>
       <r>   -0.0243    0.0000 </r>
       <r>    0.0098    0.0000 </r>
       <r>    0.1326    0.0000 </r>
       <r>    0.1879    0.0000 </r>
       <r>    0.3604    0.0000 </r>
       <r>    0.5487    0.0000 </r>
       <r>    0.6166    0.0000 </r>
       <r>    0.8375    0.0000 </r>
       <r>    1.0004    0.0000 </r>
       <r>    1.0391    0.0000 </r>
       <r>    1.0769    0.0000 </r>
       <r>    1.1549    0.0000 </r>
       <r>    1.2200    0.0000 </r>
       <r>    1.2694    0.0000 </r>
       <r>    1.3897    0.0000 </r>
       <r>    1.4950    0.0000 </r>
       <r>    1.6351    0.0000 </r>
       <r>    1.7904    0.0000 </r>
      </set>
      <set comment="kpoint 4">
       <r>  -62.6018    1.0000 </r>
       <r>  -62.5089    1.0000 </r>
       <r>  -62.4904    1.0000 </r>
       <r>  -62.4785    1.0000 </r>
       <r>  -62.4322    1.0000 </r>
       <r>  -62.3924    1.0000 </r>
       <r>  -62.3716    1.0000 </r>
       <r>  -62.3501    1.0000 </r>
       <r>  -62.3150    1.0000 </r>
       <r>  -36.9468    1.0000 </r>
       <r>  -36.9284    1.0000 </r>
       <r>  -36.9076    1.0000 </r>
       <r>  -36.8634    1.0000 </r>
       <r>  -36.7972    1.0000 </r>
       <r>  -36.7654    1.0000 </r>
       <r>  -36.7631    1.0000 </r>
       <r>  -36.6843    1.0000 </r>
       <r>  -36.6785    1.0000 </r>
       <r>  -36.6540    1.0000 </r>
       <r>  -36.6407    1.0000 </r>
       <r>  -36.5916    1.0000 </r>
       <r>  -36.5843    1.0000 </r>
       <r>  -36.5652    1.0000 </r>
       <r>  -36.5372    1.0000 </r>
       <r>  -36.5195    1.0000 </r>
       <r>  -36.5066    1.0000 </r>
       <r>  -36.4962    1.0000 </r>
       <r>  -36.4545    1.0000 </r>
       <r>  -36.4439    1.0000 </r>
       <r>  -36.4351    1.0000 </r>
       <r>  -36.4175    1.0000 </r>
       <r>  -36.3990    1.0000 </r>
       <r>  -36.3749    1.0000 </r>
       <r>  -36.3702    1.0000 </r>
       <r>  -36.3397    1.0000 </r>
       <r>  -36.2906    1.0000 </r>
       <r>  -15.3399    1.0000 </r>
       <r>  -15.2713    1.0000 </r>
       <r>  -14.7363    1.0000 </r>
       <r>  -14.5654    1.0000 </r>
       <r>  -14.4135    1.0000 </r>
       <r>  -14.3841    1.0000 </r>
       <r>  -14.2025    1.0000 </r>
       <r>  -14.1303    1.0000 </r>
       <r>  -14.0462    1.0000 </r>
       <r>  -13.9771    1.0000 </r>
       <r>  -13.9155    1.0000 </r>
       <r>  -13.8898    1.0000 </r>
       <r>  -13.8563    1.0000 </r>
       <r>  -13.6652    1.0000 </r>
       <r>  -13.5913    1.0000 </r>
       <r>  -13.3789    1.0000 </r>
       <r>  -13.3535    1.0000 </r>
       <r>  -13.1234    1.0000 </r>
       <r>   -7.7203    1.0000 </r>
       <r>   -7.2606    1.0000 </r>
       <r>   -7.2065    1.0000 </r>
       <r>   -7.0928    1.0000 </r>
       <r>   -7.0430    1.0000 </r>
       <r>   -6.6787    1.0000 </r>
       <r>   -6.6286    1.0000 </r>
       <r>   -6.5770    1.0000 </r>
       <r>   -6.4552    1.0000 </r>
       <r>   -6.3970    1.0000 </r>
       <r>   -6.2647    1.0000 </r>
       <r>   -6.2555    1.0000 </r>
       <r>   -6.2095    1.0000 </r>
       <r>   -6.0933    1.0000 </r>
       <r>   -5.9936    1.0000 </r>
       <r>   -5.8788    1.0000 </r>
       <r>   -5.8218    1.0000 </r>
       <r>   -5.7559    1.0000 </r>
       <r>   -5.5062    1.0000 </r>
       <r>   -5.4015    1.0000 </r>
       <r>   -5.3759    1.0000 </r>
       <r>   -5.3700    1.0000 </r>
       <r>   -5.2659    1.0000 </r>
       <r>   -5.1764    1.0000 </r>
       <r>   -5.1575    1.0000 </r>
       <r>   -5.0329    1.0000 </r>
       <r>   -4.9521    1.0000 </r>
       <r>   -4.9342    1.0000 </r>
       <r>   -4.9132    1.0000 </r>
       <r>   -4.8615    1.0000 </r>
       <r>   -4.6707    1.0000 </r>
       <r>   -4.5577    1.0000 </r>
       <r>   -4.5441    1.0000 </r>
       <r>   -4.4056    1.0000 </r>
       <r>   -4.3715    1.0000 </r>
       <r>   -4.2787    1.0000 </r>
       <r>   -4.2630    1.0000 </r>
       <r>   -4.2535    1.0000 </r>
       <r>   -4.0733    1.0000 </r>
       <r>   -3.9818    1.0000 </r>
       <r>   -3.8688    1.0000 </r>
       <r>   -3.8391    1.0000 </r>
       <r>   -3.7632    1.0000 </r>
       <r>   -3.7412    1.0000 </r>
       <r>   -3.4219    1.0000 </r>
       <r>   -3.3462    1.0000 </r>
       <r>   -3.1926    1.0000 </r>
       <r>   -3.0597    1.0000 </r>
       <r>   -2.8332    1.0000 </r>
       <r>   -2.7839    1.0000 </r>
       <r>   -2.6783    1.0000 </r>
       <r>   -2.5215    1.0000 </r>
       <r>   -2.4579    1.0000 </r>
       <r>   -2.4316    1.0000 </r>
       <r>   -2.2376    1.0000 </r>
       <r>   -2.2109    1.0000 </r>
       <r>   -2.1334    1.0000 </r>
       <r>   -1.9456    1.0000 </r>
       <r>   -1.8920    1.0000 </r>
       <r>   -1.8480    1.0000 </r>
       <r>   -1.8191    1.0000 </r>
       <r>   -1.6872    1.0000 </r>
       <r>   -1.5969    1.0000 </r>
       <r>   -0.7005    0.0000 </r>
       <r>   -0.5805    0.0000 </r>
       <r>   -0.2986    0.0000 </r>
       <r>   -0.1423    0.0000 </r>
       <r>   -0.1070    0.0000 </r>
       <r>   -0.0415    0.0000 </r>
       <r>    0.1287    0.0000 </r>
       <r>    0.1359    0.0000 </r>
       <r>    0.2037    0.0000 </r>
       <r>    0.3783    0.0000 </r>
       <r>    0.5727    0.0000 </r>
       <r>    0.6463    0.0000 </r>
       <r>    0.8797    0.0000 </r>
       <r>    0.9521    0.0000 </r>
       <r>    1.0349    0.0000 </r>
       <r>    1.1122    0.0000 </r>
       <r>    1.1529    0.0000 </r>
       <r>    1.1834    0.0000 </r>
       <r>    1.2293    0.0000 </r>
       <r>    1.3726    0.0000 </r>
       <r>    1.4502    0.0000 </r>
       <r>    1.5589    0.0000 </r>
       <r>    1.6950    0.0000 </r>
      </set>
      <set comment="kpoint 5">
       <r>  -62.6019    1.0000 </r>
       <r>  -62.5086    1.0000 </r>
       <r>  -62.4908    1.0000 </r>
       <r>  -62.4784    1.0000 </r>
       <r>  -62.4316    1.0000 </r>
       <r>  -62.3932    1.0000 </r>
       <r>  -62.3713    1.0000 </r>
       <r>  -62.3501    1.0000 </r>
       <r>  -62.3149    1.0000 </r>
       <r>  -36.9436    1.0000 </r>
       <r>  -36.9059    1.0000 </r>
       <r>  -36.8845    1.0000 </r>
       <r>  -36.8372    1.0000 </r>
       <r>  -36.8250    1.0000 </r>
       <r>  -36.7907    1.0000 </r>
       <r>  -36.7609    1.0000 </r>
       <r>  -36.7449    1.0000 </r>
       <r>  -36.6947    1.0000 </r>
       <r>  -36.6838    1.0000 </r>
       <r>  -36.6017    1.0000 </r>
       <r>  -36.5912    1.0000 </r>
       <r>  -36.5755    1.0000 </r>
       <r>  -36.5488    1.0000 </r>
       <r>  -36.5290    1.0000 </r>
       <r>  -36.5154    1.0000 </r>
       <r>  -36.5074    1.0000 </r>
       <r>  -36.4848    1.0000 </r>
       <r>  -36.4639    1.0000 </r>
       <r>  -36.4482    1.0000 </r>
       <r>  -36.4337    1.0000 </r>
       <r>  -36.4115    1.0000 </r>
       <r>  -36.4027    1.0000 </r>
       <r>  -36.3749    1.0000 </r>
       <r>  -36.3719    1.0000 </r>
       <r>  -36.3344    1.0000 </r>
       <r>  -36.2891    1.0000 </r>
       <r>  -15.6652    1.0000 </r>
       <r>  -14.7423    1.0000 </r>
       <r>  -14.6326    1.0000 </r>
       <r>  -14.5146    1.0000 </r>
       <r>  -14.4768    1.0000 </r>
       <r>  -14.3620    1.0000 </r>
       <r>  -14.3004    1.0000 </r>
       <r>  -14.2285    1.0000 </r>
       <r>  -14.0924    1.0000 </r>
       <r>  -14.0459    1.0000 </r>
       <r>  -13.9335    1.0000 </r>
       <r>  -13.8458    1.0000 </r>
       <r>  -13.7698    1.0000 </r>
       <r>  -13.6136    1.0000 </r>
       <r>  -13.5920    1.0000 </r>
       <r>  -13.5279    1.0000 </r>
       <r>  -13.4448    1.0000 </r>
       <r>  -13.1294    1.0000 </r>
       <r>   -7.2045    1.0000 </r>
       <r>   -7.0916    1.0000 </r>
       <r>   -6.9888    1.0000 </r>
       <r>   -6.9310    1.0000 </r>
       <r>   -6.8720    1.0000 </r>
       <r>   -6.8386    1.0000 </r>
       <r>   -6.7760    1.0000 </r>
       <r>   -6.5670    1.0000 </r>
       <r>   -6.5510    1.0000 </r>
       <r>   -6.4938    1.0000 </r>
       <r>   -6.3873    1.0000 </r>
       <r>   -6.3242    1.0000 </r>
       <r>   -6.2294    1.0000 </r>
       <r>   -6.1456    1.0000 </r>
       <r>   -6.0671    1.0000 </r>
       <r>   -6.0336    1.0000 </r>
       <r>   -5.8534    1.0000 </r>
       <r>   -5.8308    1.0000 </r>
       <r>   -5.7645    1.0000 </r>
       <r>   -5.6422    1.0000 </r>
       <r>   -5.5955    1.0000 </r>
       <r>   -5.3511    1.0000 </r>
       <r>   -5.2866    1.0000 </r>
       <r>   -5.1836    1.0000 </r>
       <r>   -5.1274    1.0000 </r>
       <r>   -5.0967    1.0000 </r>
       <r>   -4.9928    1.0000 </r>
       <r>   -4.8484    1.0000 </r>
       <r>   -4.8029    1.0000 </r>
       <r>   -4.7890    1.0000 </r>
       <r>   -4.6678    1.0000 </r>
       <r>   -4.5633    1.0000 </r>
       <r>   -4.4584    1.0000 </r>
       <r>   -4.4413    1.0000 </r>
       <r>   -4.3640    1.0000 </r>
       <r>   -4.3365    1.0000 </r>
       <r>   -4.2736    1.0000 </r>
       <r>   -4.2125    1.0000 </r>
       <r>   -4.1359    1.0000 </r>
       <r>   -3.8027    1.0000 </r>
       <r>   -3.7605    1.0000 </r>
       <r>   -3.7240    1.0000 </r>
       <r>   -3.6468    1.0000 </r>
       <r>   -3.5877    1.0000 </r>
       <r>   -3.4833    1.0000 </r>
       <r>   -3.2258    1.0000 </r>
       <r>   -3.1162    1.0000 </r>
       <r>   -3.0271    1.0000 </r>
       <r>   -2.9192    1.0000 </r>
       <r>   -2.8356    1.0000 </r>
       <r>   -2.7293    1.0000 </r>
       <r>   -2.7071    1.0000 </r>
       <r>   -2.5605    1.0000 </r>
       <r>   -2.4252    1.0000 </r>
       <r>   -2.3160    1.0000 </r>
       <r>   -2.2652    1.0000 </r>
       <r>   -2.0867    1.0000 </r>
       <r>   -2.0123    1.0000 </r>
       <r>   -1.8879    1.0000 </r>
       <r>   -1.8382    1.0000 </r>
       <r>   -1.7463    1.0000 </r>
       <r>   -1.5856    1.0000 </r>
       <r>   -1.4997    1.0000 </r>
       <r>   -0.7460    0.0000 </r>
       <r>   -0.3928    0.0000 </r>
       <r>   -0.3015    0.0000 </r>
       <r>   -0.2501    0.0000 </r>
       <r>   -0.1665    0.0000 </r>
       <r>   -0.1043    0.0000 </r>
       <r>   -0.0081    0.0000 </r>
       <r>    0.0835    0.0000 </r>
       <r>    0.1603    0.0000 </r>
       <r>    0.3081    0.0000 </r>
       <r>    0.5904    0.0000 </r>
       <r>    0.6226    0.0000 </r>
       <r>    0.8283    0.0000 </r>
       <r>    0.8770    0.0000 </r>
       <r>    0.9598    0.0000 </r>
       <r>    1.0399    0.0000 </r>
       <r>    1.1046    0.0000 </r>
       <r>    1.2400    0.0000 </r>
       <r>    1.4702    0.0000 </r>
       <r>    1.5951    0.0000 </r>
       <r>    1.7101    0.0000 </r>
       <r>    1.7590    0.0000 </r>
       <r>    1.9227    0.0000 </r>
      </set>
      <set comment="kpoint 6">
       <r>  -62.6019    1.0000 </r>
       <r>  -62.5086    1.0000 </r>
       <r>  -62.4909    1.0000 </r>
       <r>  -62.4783    1.0000 </r>
       <r>  -62.4319    1.0000 </r>
       <r>  -62.3927    1.0000 </r>
       <r>  -62.3715    1.0000 </r>
       <r>  -62.3501    1.0000 </r>
       <r>  -62.3149    1.0000 </r>
       <r>  -36.9466    1.0000 </r>
       <r>  -36.9160    1.0000 </r>
       <r>  -36.9013    1.0000 </r>
       <r>  -36.8507    1.0000 </r>
       <r>  -36.8050    1.0000 </r>
       <r>  -36.7845    1.0000 </r>
       <r>  -36.7464    1.0000 </r>
       <r>  -36.7254    1.0000 </r>
       <r>  -36.6877    1.0000 </r>
       <r>  -36.6769    1.0000 </r>
       <r>  -36.6076    1.0000 </r>
       <r>  -36.5944    1.0000 </r>
       <r>  -36.5781    1.0000 </r>
       <r>  -36.5532    1.0000 </r>
       <r>  -36.5405    1.0000 </r>
       <r>  -36.5216    1.0000 </r>
       <r>  -36.5106    1.0000 </r>
       <r>  -36.4811    1.0000 </r>
       <r>  -36.4595    1.0000 </r>
       <r>  -36.4457    1.0000 </r>
       <r>  -36.4356    1.0000 </r>
       <r>  -36.4152    1.0000 </r>
       <r>  -36.3995    1.0000 </r>
       <r>  -36.3741    1.0000 </r>
       <r>  -36.3710    1.0000 </r>
       <r>  -36.3368    1.0000 </r>
       <r>  -36.2901    1.0000 </r>
       <r>  -15.5723    1.0000 </r>
       <r>  -14.8627    1.0000 </r>
       <r>  -14.8442    1.0000 </r>
       <r>  -14.4744    1.0000 </r>
       <r>  -14.4447    1.0000 </r>
       <r>  -14.3483    1.0000 </r>
       <r>  -14.2377    1.0000 </r>
       <r>  -14.1718    1.0000 </r>
       <r>  -14.1040    1.0000 </r>
       <r>  -14.0619    1.0000 </r>
       <r>  -13.8905    1.0000 </r>
       <r>  -13.8310    1.0000 </r>
       <r>  -13.7972    1.0000 </r>
       <r>  -13.6961    1.0000 </r>
       <r>  -13.5889    1.0000 </r>
       <r>  -13.4347    1.0000 </r>
       <r>  -13.3884    1.0000 </r>
       <r>  -13.1298    1.0000 </r>
       <r>   -7.3971    1.0000 </r>
       <r>   -7.3668    1.0000 </r>
       <r>   -7.1372    1.0000 </r>
       <r>   -7.0028    1.0000 </r>
       <r>   -6.8488    1.0000 </r>
       <r>   -6.8068    1.0000 </r>
       <r>   -6.7456    1.0000 </r>
       <r>   -6.5379    1.0000 </r>
       <r>   -6.4905    1.0000 </r>
       <r>   -6.4388    1.0000 </r>
       <r>   -6.3421    1.0000 </r>
       <r>   -6.2795    1.0000 </r>
       <r>   -6.1796    1.0000 </r>
       <r>   -6.1357    1.0000 </r>
       <r>   -6.0991    1.0000 </r>
       <r>   -5.8347    1.0000 </r>
       <r>   -5.8214    1.0000 </r>
       <r>   -5.6490    1.0000 </r>
       <r>   -5.5816    1.0000 </r>
       <r>   -5.5306    1.0000 </r>
       <r>   -5.4611    1.0000 </r>
       <r>   -5.2956    1.0000 </r>
       <r>   -5.2828    1.0000 </r>
       <r>   -5.2287    1.0000 </r>
       <r>   -5.1833    1.0000 </r>
       <r>   -5.1570    1.0000 </r>
       <r>   -5.1273    1.0000 </r>
       <r>   -4.9576    1.0000 </r>
       <r>   -4.8731    1.0000 </r>
       <r>   -4.8130    1.0000 </r>
       <r>   -4.7578    1.0000 </r>
       <r>   -4.5345    1.0000 </r>
       <r>   -4.4866    1.0000 </r>
       <r>   -4.4158    1.0000 </r>
       <r>   -4.3437    1.0000 </r>
       <r>   -4.2761    1.0000 </r>
       <r>   -4.2367    1.0000 </r>
       <r>   -4.1259    1.0000 </r>
       <r>   -4.0370    1.0000 </r>
       <r>   -3.9513    1.0000 </r>
       <r>   -3.8545    1.0000 </r>
       <r>   -3.7759    1.0000 </r>
       <r>   -3.7196    1.0000 </r>
       <r>   -3.6194    1.0000 </r>
       <r>   -3.5000    1.0000 </r>
       <r>   -3.2297    1.0000 </r>
       <r>   -3.1473    1.0000 </r>
       <r>   -3.0549    1.0000 </r>
       <r>   -2.9421    1.0000 </r>
       <r>   -2.8085    1.0000 </r>
       <r>   -2.6938    1.0000 </r>
       <r>   -2.5389    1.0000 </r>
       <r>   -2.4560    1.0000 </r>
       <r>   -2.4321    1.0000 </r>
       <r>   -2.3018    1.0000 </r>
       <r>   -2.2293    1.0000 </r>
       <r>   -2.1761    1.0000 </r>
       <r>   -2.0534    1.0000 </r>
       <r>   -1.9082    1.0000 </r>
       <r>   -1.8144    1.0000 </r>
       <r>   -1.7646    1.0000 </r>
       <r>   -1.6240    1.0000 </r>
       <r>   -1.5593    1.0000 </r>
       <r>   -0.7194    0.0000 </r>
       <r>   -0.4347    0.0000 </r>
       <r>   -0.3688    0.0000 </r>
       <r>   -0.1819    0.0000 </r>
       <r>   -0.1140    0.0000 </r>
       <r>   -0.0564    0.0000 </r>
       <r>    0.0032    0.0000 </r>
       <r>    0.1294    0.0000 </r>
       <r>    0.1871    0.0000 </r>
       <r>    0.3532    0.0000 </r>
       <r>    0.5376    0.0000 </r>
       <r>    0.5981    0.0000 </r>
       <r>    0.8589    0.0000 </r>
       <r>    0.9858    0.0000 </r>
       <r>    1.0255    0.0000 </r>
       <r>    1.0657    0.0000 </r>
       <r>    1.1443    0.0000 </r>
       <r>    1.2611    0.0000 </r>
       <r>    1.3378    0.0000 </r>
       <r>    1.4576    0.0000 </r>
       <r>    1.5245    0.0000 </r>
       <r>    1.6886    0.0000 </r>
       <r>    1.7483    0.0000 </r>
      </set>
      <set comment="kpoint 7">
       <r>  -62.6018    1.0000 </r>
       <r>  -62.5086    1.0000 </r>
       <r>  -62.4910    1.0000 </r>
       <r>  -62.4782    1.0000 </r>
       <r>  -62.4321    1.0000 </r>
       <r>  -62.3924    1.0000 </r>
       <r>  -62.3717    1.0000 </r>
       <r>  -62.3500    1.0000 </r>
       <r>  -62.3150    1.0000 </r>
       <r>  -36.9494    1.0000 </r>
       <r>  -36.9284    1.0000 </r>
       <r>  -36.9079    1.0000 </r>
       <r>  -36.8564    1.0000 </r>
       <r>  -36.7979    1.0000 </r>
       <r>  -36.7798    1.0000 </r>
       <r>  -36.7439    1.0000 </r>
       <r>  -36.6978    1.0000 </r>
       <r>  -36.6798    1.0000 </r>
       <r>  -36.6597    1.0000 </r>
       <r>  -36.6240    1.0000 </r>
       <r>  -36.5958    1.0000 </r>
       <r>  -36.5822    1.0000 </r>
       <r>  -36.5636    1.0000 </r>
       <r>  -36.5438    1.0000 </r>
       <r>  -36.5213    1.0000 </r>
       <r>  -36.5106    1.0000 </r>
       <r>  -36.4852    1.0000 </r>
       <r>  -36.4563    1.0000 </r>
       <r>  -36.4432    1.0000 </r>
       <r>  -36.4371    1.0000 </r>
       <r>  -36.4201    1.0000 </r>
       <r>  -36.3971    1.0000 </r>
       <r>  -36.3730    1.0000 </r>
       <r>  -36.3709    1.0000 </r>
       <r>  -36.3388    1.0000 </r>
       <r>  -36.2912    1.0000 </r>
       <r>  -15.3959    1.0000 </r>
       <r>  -15.1385    1.0000 </r>
       <r>  -14.9191    1.0000 </r>
       <r>  -14.4515    1.0000 </r>
       <r>  -14.4131    1.0000 </r>
       <r>  -14.3559    1.0000 </r>
       <r>  -14.2039    1.0000 </r>
       <r>  -14.0986    1.0000 </r>
       <r>  -14.0750    1.0000 </r>
       <r>  -13.9998    1.0000 </r>
       <r>  -13.9495    1.0000 </r>
       <r>  -13.8480    1.0000 </r>
       <r>  -13.8219    1.0000 </r>
       <r>  -13.7386    1.0000 </r>
       <r>  -13.6215    1.0000 </r>
       <r>  -13.3502    1.0000 </r>
       <r>  -13.3393    1.0000 </r>
       <r>  -13.1193    1.0000 </r>
       <r>   -7.6485    1.0000 </r>
       <r>   -7.4400    1.0000 </r>
       <r>   -7.3473    1.0000 </r>
       <r>   -6.9405    1.0000 </r>
       <r>   -6.8501    1.0000 </r>
       <r>   -6.7132    1.0000 </r>
       <r>   -6.6156    1.0000 </r>
       <r>   -6.5411    1.0000 </r>
       <r>   -6.4793    1.0000 </r>
       <r>   -6.4001    1.0000 </r>
       <r>   -6.3234    1.0000 </r>
       <r>   -6.2965    1.0000 </r>
       <r>   -6.1847    1.0000 </r>
       <r>   -6.1277    1.0000 </r>
       <r>   -6.0616    1.0000 </r>
       <r>   -5.8198    1.0000 </r>
       <r>   -5.7489    1.0000 </r>
       <r>   -5.7109    1.0000 </r>
       <r>   -5.5102    1.0000 </r>
       <r>   -5.4592    1.0000 </r>
       <r>   -5.3717    1.0000 </r>
       <r>   -5.3536    1.0000 </r>
       <r>   -5.2502    1.0000 </r>
       <r>   -5.1891    1.0000 </r>
       <r>   -5.1486    1.0000 </r>
       <r>   -5.0641    1.0000 </r>
       <r>   -5.0270    1.0000 </r>
       <r>   -4.9596    1.0000 </r>
       <r>   -4.9355    1.0000 </r>
       <r>   -4.8844    1.0000 </r>
       <r>   -4.7083    1.0000 </r>
       <r>   -4.5293    1.0000 </r>
       <r>   -4.4992    1.0000 </r>
       <r>   -4.4741    1.0000 </r>
       <r>   -4.3528    1.0000 </r>
       <r>   -4.3049    1.0000 </r>
       <r>   -4.2389    1.0000 </r>
       <r>   -4.1958    1.0000 </r>
       <r>   -4.0433    1.0000 </r>
       <r>   -3.9085    1.0000 </r>
       <r>   -3.8719    1.0000 </r>
       <r>   -3.8036    1.0000 </r>
       <r>   -3.7207    1.0000 </r>
       <r>   -3.6126    1.0000 </r>
       <r>   -3.5097    1.0000 </r>
       <r>   -3.3241    1.0000 </r>
       <r>   -3.1947    1.0000 </r>
       <r>   -3.0159    1.0000 </r>
       <r>   -2.9264    1.0000 </r>
       <r>   -2.8785    1.0000 </r>
       <r>   -2.7577    1.0000 </r>
       <r>   -2.5891    1.0000 </r>
       <r>   -2.4592    1.0000 </r>
       <r>   -2.3430    1.0000 </r>
       <r>   -2.2641    1.0000 </r>
       <r>   -2.2020    1.0000 </r>
       <r>   -2.1241    1.0000 </r>
       <r>   -1.9991    1.0000 </r>
       <r>   -1.9234    1.0000 </r>
       <r>   -1.8408    1.0000 </r>
       <r>   -1.7860    1.0000 </r>
       <r>   -1.6306    1.0000 </r>
       <r>   -1.5656    1.0000 </r>
       <r>   -0.6599    0.0000 </r>
       <r>   -0.5449    0.0000 </r>
       <r>   -0.3606    0.0000 </r>
       <r>   -0.1190    0.0000 </r>
       <r>   -0.0719    0.0000 </r>
       <r>   -0.0340    0.0000 </r>
       <r>    0.0358    0.0000 </r>
       <r>    0.1423    0.0000 </r>
       <r>    0.1700    0.0000 </r>
       <r>    0.3910    0.0000 </r>
       <r>    0.5621    0.0000 </r>
       <r>    0.6375    0.0000 </r>
       <r>    0.9048    0.0000 </r>
       <r>    0.9862    0.0000 </r>
       <r>    1.0579    0.0000 </r>
       <r>    1.1014    0.0000 </r>
       <r>    1.1483    0.0000 </r>
       <r>    1.1820    0.0000 </r>
       <r>    1.2661    0.0000 </r>
       <r>    1.3783    0.0000 </r>
       <r>    1.4275    0.0000 </r>
       <r>    1.5745    0.0000 </r>
       <r>    1.6627    0.0000 </r>
      </set>
      <set comment="kpoint 8">
       <r>  -62.6018    1.0000 </r>
       <r>  -62.5087    1.0000 </r>
       <r>  -62.4910    1.0000 </r>
       <r>  -62.4781    1.0000 </r>
       <r>  -62.4320    1.0000 </r>
       <r>  -62.3926    1.0000 </r>
       <r>  -62.3716    1.0000 </r>
       <r>  -62.3500    1.0000 </r>
       <r>  -62.3150    1.0000 </r>
       <r>  -36.9497    1.0000 </r>
       <r>  -36.9304    1.0000 </r>
       <r>  -36.9019    1.0000 </r>
       <r>  -36.8558    1.0000 </r>
       <r>  -36.8046    1.0000 </r>
       <r>  -36.7779    1.0000 </r>
       <r>  -36.7531    1.0000 </r>
       <r>  -36.6945    1.0000 </r>
       <r>  -36.6730    1.0000 </r>
       <r>  -36.6526    1.0000 </r>
       <r>  -36.6327    1.0000 </r>
       <r>  -36.5941    1.0000 </r>
       <r>  -36.5834    1.0000 </r>
       <r>  -36.5642    1.0000 </r>
       <r>  -36.5420    1.0000 </r>
       <r>  -36.5186    1.0000 </r>
       <r>  -36.5094    1.0000 </r>
       <r>  -36.4913    1.0000 </r>
       <r>  -36.4536    1.0000 </r>
       <r>  -36.4433    1.0000 </r>
       <r>  -36.4351    1.0000 </r>
       <r>  -36.4223    1.0000 </r>
       <r>  -36.3970    1.0000 </r>
       <r>  -36.3738    1.0000 </r>
       <r>  -36.3704    1.0000 </r>
       <r>  -36.3398    1.0000 </r>
       <r>  -36.2910    1.0000 </r>
       <r>  -15.3965    1.0000 </r>
       <r>  -15.1392    1.0000 </r>
       <r>  -14.9200    1.0000 </r>
       <r>  -14.4421    1.0000 </r>
       <r>  -14.4184    1.0000 </r>
       <r>  -14.3524    1.0000 </r>
       <r>  -14.2044    1.0000 </r>
       <r>  -14.1020    1.0000 </r>
       <r>  -14.0841    1.0000 </r>
       <r>  -13.9936    1.0000 </r>
       <r>  -13.9408    1.0000 </r>
       <r>  -13.8466    1.0000 </r>
       <r>  -13.8235    1.0000 </r>
       <r>  -13.7394    1.0000 </r>
       <r>  -13.6235    1.0000 </r>
       <r>  -13.3693    1.0000 </r>
       <r>  -13.3262    1.0000 </r>
       <r>  -13.1180    1.0000 </r>
       <r>   -7.6492    1.0000 </r>
       <r>   -7.4388    1.0000 </r>
       <r>   -7.3524    1.0000 </r>
       <r>   -6.9368    1.0000 </r>
       <r>   -6.8478    1.0000 </r>
       <r>   -6.7066    1.0000 </r>
       <r>   -6.6026    1.0000 </r>
       <r>   -6.5044    1.0000 </r>
       <r>   -6.4508    1.0000 </r>
       <r>   -6.4043    1.0000 </r>
       <r>   -6.3456    1.0000 </r>
       <r>   -6.2889    1.0000 </r>
       <r>   -6.2157    1.0000 </r>
       <r>   -6.1372    1.0000 </r>
       <r>   -6.0761    1.0000 </r>
       <r>   -5.8742    1.0000 </r>
       <r>   -5.7656    1.0000 </r>
       <r>   -5.6579    1.0000 </r>
       <r>   -5.5310    1.0000 </r>
       <r>   -5.4654    1.0000 </r>
       <r>   -5.3773    1.0000 </r>
       <r>   -5.3321    1.0000 </r>
       <r>   -5.2315    1.0000 </r>
       <r>   -5.1640    1.0000 </r>
       <r>   -5.1348    1.0000 </r>
       <r>   -5.1011    1.0000 </r>
       <r>   -5.0336    1.0000 </r>
       <r>   -4.9649    1.0000 </r>
       <r>   -4.9137    1.0000 </r>
       <r>   -4.8565    1.0000 </r>
       <r>   -4.7275    1.0000 </r>
       <r>   -4.5952    1.0000 </r>
       <r>   -4.5058    1.0000 </r>
       <r>   -4.4470    1.0000 </r>
       <r>   -4.3725    1.0000 </r>
       <r>   -4.3089    1.0000 </r>
       <r>   -4.2087    1.0000 </r>
       <r>   -4.1637    1.0000 </r>
       <r>   -4.0863    1.0000 </r>
       <r>   -3.9321    1.0000 </r>
       <r>   -3.8745    1.0000 </r>
       <r>   -3.8040    1.0000 </r>
       <r>   -3.7192    1.0000 </r>
       <r>   -3.5930    1.0000 </r>
       <r>   -3.4721    1.0000 </r>
       <r>   -3.3329    1.0000 </r>
       <r>   -3.1784    1.0000 </r>
       <r>   -3.0468    1.0000 </r>
       <r>   -2.9567    1.0000 </r>
       <r>   -2.8524    1.0000 </r>
       <r>   -2.7522    1.0000 </r>
       <r>   -2.5204    1.0000 </r>
       <r>   -2.4972    1.0000 </r>
       <r>   -2.3320    1.0000 </r>
       <r>   -2.2327    1.0000 </r>
       <r>   -2.2057    1.0000 </r>
       <r>   -2.1095    1.0000 </r>
       <r>   -2.0244    1.0000 </r>
       <r>   -1.9306    1.0000 </r>
       <r>   -1.8805    1.0000 </r>
       <r>   -1.8099    1.0000 </r>
       <r>   -1.6709    1.0000 </r>
       <r>   -1.4880    1.0000 </r>
       <r>   -0.6901    0.0000 </r>
       <r>   -0.5146    0.0000 </r>
       <r>   -0.3298    0.0000 </r>
       <r>   -0.1270    0.0000 </r>
       <r>   -0.1019    0.0000 </r>
       <r>   -0.0264    0.0000 </r>
       <r>    0.0445    0.0000 </r>
       <r>    0.1402    0.0000 </r>
       <r>    0.1698    0.0000 </r>
       <r>    0.3929    0.0000 </r>
       <r>    0.5614    0.0000 </r>
       <r>    0.6315    0.0000 </r>
       <r>    0.8860    0.0000 </r>
       <r>    0.9760    0.0000 </r>
       <r>    1.0679    0.0000 </r>
       <r>    1.0877    0.0000 </r>
       <r>    1.1539    0.0000 </r>
       <r>    1.2163    0.0000 </r>
       <r>    1.2316    0.0000 </r>
       <r>    1.3492    0.0000 </r>
       <r>    1.3971    0.0000 </r>
       <r>    1.6165    0.0000 </r>
       <r>    1.6752    0.0000 </r>
      </set>
      <set comment="kpoint 9">
       <r>  -62.6018    1.0000 </r>
       <r>  -62.5087    1.0000 </r>
       <r>  -62.4909    1.0000 </r>
       <r>  -62.4782    1.0000 </r>
       <r>  -62.4317    1.0000 </r>
       <r>  -62.3931    1.0000 </r>
       <r>  -62.3713    1.0000 </r>
       <r>  -62.3500    1.0000 </r>
       <r>  -62.3150    1.0000 </r>
       <r>  -36.9474    1.0000 </r>
       <r>  -36.9206    1.0000 </r>
       <r>  -36.8849    1.0000 </r>
       <r>  -36.8520    1.0000 </r>
       <r>  -36.8169    1.0000 </r>
       <r>  -36.7867    1.0000 </r>
       <r>  -36.7611    1.0000 </r>
[...]
       <r>   -5.3384    1.0000 </r>
       <r>   -5.2955    1.0000 </r>
       <r>   -5.1823    1.0000 </r>
       <r>   -5.1208    1.0000 </r>
       <r>   -5.0507    1.0000 </r>
       <r>   -5.0296    1.0000 </r>
       <r>   -4.9335    1.0000 </r>
       <r>   -4.8555    1.0000 </r>
       <r>   -4.7451    1.0000 </r>
       <r>   -4.6374    1.0000 </r>
       <r>   -4.6084    1.0000 </r>
       <r>   -4.4989    1.0000 </r>
       <r>   -4.4876    1.0000 </r>
       <r>   -4.3084    1.0000 </r>
       <r>   -4.3005    1.0000 </r>
       <r>   -4.2365    1.0000 </r>
       <r>   -4.1986    1.0000 </r>
       <r>   -4.1336    1.0000 </r>
       <r>   -3.9856    1.0000 </r>
       <r>   -3.8766    1.0000 </r>
       <r>   -3.8243    1.0000 </r>
       <r>   -3.8113    1.0000 </r>
       <r>   -3.7372    1.0000 </r>
       <r>   -3.4259    1.0000 </r>
       <r>   -3.2804    1.0000 </r>
       <r>   -3.2248    1.0000 </r>
       <r>   -3.1735    1.0000 </r>
       <r>   -2.8077    1.0000 </r>
       <r>   -2.6918    1.0000 </r>
       <r>   -2.6467    1.0000 </r>
       <r>   -2.5552    1.0000 </r>
       <r>   -2.4484    1.0000 </r>
       <r>   -2.3481    1.0000 </r>
       <r>   -2.2989    1.0000 </r>
       <r>   -2.2620    1.0000 </r>
       <r>   -2.0844    1.0000 </r>
       <r>   -2.0227    1.0000 </r>
       <r>   -1.9806    1.0000 </r>
       <r>   -1.8120    1.0000 </r>
       <r>   -1.7725    1.0000 </r>
       <r>   -1.7036    1.0000 </r>
       <r>   -1.5550    1.0000 </r>
       <r>   -0.6593    0.0000 </r>
       <r>   -0.6189    0.0000 </r>
       <r>   -0.3704    0.0000 </r>
       <r>   -0.1472    0.0000 </r>
       <r>   -0.1109    0.0000 </r>
       <r>    0.0132    0.0000 </r>
       <r>    0.0954    0.0000 </r>
       <r>    0.1254    0.0000 </r>
       <r>    0.2305    0.0000 </r>
       <r>    0.4681    0.0000 </r>
       <r>    0.5660    0.0000 </r>
       <r>    0.6795    0.0000 </r>
       <r>    0.9003    0.0000 </r>
       <r>    1.0021    0.0000 </r>
       <r>    1.0356    0.0000 </r>
       <r>    1.0865    0.0000 </r>
       <r>    1.1112    0.0000 </r>
       <r>    1.2122    0.0000 </r>
       <r>    1.2621    0.0000 </r>
       <r>    1.2775    0.0000 </r>
       <r>    1.3378    0.0000 </r>
       <r>    1.5121    0.0000 </r>
       <r>    1.7387    0.0000 </r>
      </set>
     </set>
    </set>
   </array>
  </eigenvalues>
  <separator name="orbital magnetization" >
   <v name="MAGDIPOLOUT">      0.00000000      0.00000000      0.00000000</v>
  </separator>
  <dos>
   <i name="efermi">     -1.08887339 </i>
   <total>
    <array>
     <dimension dim="1">gridpoints</dimension>
     <dimension dim="2">spin</dimension>
     <field>energy</field>
     <field>total</field>
     <field>integrated</field>
     <set>
      <set comment="spin 1">
       <r>   -65.8329     0.0000     0.0000 </r>
       <r>   -65.5960     0.0000     0.0000 </r>
       <r>   -65.3590     0.0000     0.0000 </r>
       <r>   -65.1221     0.0000     0.0000 </r>
       <r>   -64.8851     0.0000     0.0000 </r>
       <r>   -64.6482     0.0000     0.0000 </r>
       <r>   -64.4113     0.0000     0.0000 </r>
       <r>   -64.1743     0.0000     0.0000 </r>
       <r>   -63.9374     0.0000     0.0000 </r>
       <r>   -63.7004     0.0000     0.0000 </r>
       <r>   -63.4635     0.0000     0.0000 </r>
       <r>   -63.2266     0.0000     0.0000 </r>
       <r>   -62.9896     0.0000     0.0000 </r>
       <r>   -62.7527     0.0001     0.0000 </r>
       <r>   -62.5157    15.2641     3.6167 </r>
       <r>   -62.2788    59.1832    17.6396 </r>
       <r>   -62.0419     1.5210    18.0000 </r>
       <r>   -61.8049     0.0000    18.0000 </r>
       <r>   -61.5680     0.0000    18.0000 </r>
       <r>   -61.3310     0.0000    18.0000 </r>
       <r>   -61.0941     0.0000    18.0000 </r>
       <r>   -60.8572     0.0000    18.0000 </r>
       <r>   -60.6202     0.0000    18.0000 </r>
       <r>   -60.3833     0.0000    18.0000 </r>
       <r>   -60.1463     0.0000    18.0000 </r>
       <r>   -59.9094     0.0000    18.0000 </r>
       <r>   -59.6725     0.0000    18.0000 </r>
       <r>   -59.4355     0.0000    18.0000 </r>
       <r>   -59.1986     0.0000    18.0000 </r>
       <r>   -58.9616     0.0000    18.0000 </r>
       <r>   -58.7247     0.0000    18.0000 </r>
       <r>   -58.4877     0.0000    18.0000 </r>
       <r>   -58.2508     0.0000    18.0000 </r>
       <r>   -58.0139     0.0000    18.0000 </r>
       <r>   -57.7769     0.0000    18.0000 </r>
       <r>   -57.5400     0.0000    18.0000 </r>
       <r>   -57.3030     0.0000    18.0000 </r>
       <r>   -57.0661     0.0000    18.0000 </r>
       <r>   -56.8292     0.0000    18.0000 </r>
       <r>   -56.5922     0.0000    18.0000 </r>
       <r>   -56.3553     0.0000    18.0000 </r>
       <r>   -56.1183     0.0000    18.0000 </r>
       <r>   -55.8814     0.0000    18.0000 </r>
       <r>   -55.6445     0.0000    18.0000 </r>
       <r>   -55.4075     0.0000    18.0000 </r>
       <r>   -55.1706     0.0000    18.0000 </r>
       <r>   -54.9336     0.0000    18.0000 </r>
       <r>   -54.6967     0.0000    18.0000 </r>
       <r>   -54.4598     0.0000    18.0000 </r>
       <r>   -54.2228     0.0000    18.0000 </r>
       <r>   -53.9859     0.0000    18.0000 </r>
       <r>   -53.7489     0.0000    18.0000 </r>
       <r>   -53.5120     0.0000    18.0000 </r>
       <r>   -53.2751     0.0000    18.0000 </r>
       <r>   -53.0381     0.0000    18.0000 </r>
       <r>   -52.8012     0.0000    18.0000 </r>
       <r>   -52.5642     0.0000    18.0000 </r>
       <r>   -52.3273     0.0000    18.0000 </r>
       <r>   -52.0903     0.0000    18.0000 </r>
       <r>   -51.8534     0.0000    18.0000 </r>
       <r>   -51.6165     0.0000    18.0000 </r>
       <r>   -51.3795     0.0000    18.0000 </r>
       <r>   -51.1426     0.0000    18.0000 </r>
       <r>   -50.9056     0.0000    18.0000 </r>
       <r>   -50.6687     0.0000    18.0000 </r>
       <r>   -50.4318     0.0000    18.0000 </r>
       <r>   -50.1948     0.0000    18.0000 </r>
       <r>   -49.9579     0.0000    18.0000 </r>
       <r>   -49.7209     0.0000    18.0000 </r>
       <r>   -49.4840     0.0000    18.0000 </r>
       <r>   -49.2471     0.0000    18.0000 </r>
       <r>   -49.0101     0.0000    18.0000 </r>
       <r>   -48.7732     0.0000    18.0000 </r>
       <r>   -48.5362     0.0000    18.0000 </r>
       <r>   -48.2993     0.0000    18.0000 </r>
       <r>   -48.0624     0.0000    18.0000 </r>
       <r>   -47.8254     0.0000    18.0000 </r>
       <r>   -47.5885     0.0000    18.0000 </r>
       <r>   -47.3515     0.0000    18.0000 </r>
       <r>   -47.1146     0.0000    18.0000 </r>
       <r>   -46.8777     0.0000    18.0000 </r>
       <r>   -46.6407     0.0000    18.0000 </r>
       <r>   -46.4038     0.0000    18.0000 </r>
       <r>   -46.1668     0.0000    18.0000 </r>
       <r>   -45.9299     0.0000    18.0000 </r>
       <r>   -45.6930     0.0000    18.0000 </r>
       <r>   -45.4560     0.0000    18.0000 </r>
       <r>   -45.2191     0.0000    18.0000 </r>
       <r>   -44.9821     0.0000    18.0000 </r>
       <r>   -44.7452     0.0000    18.0000 </r>
       <r>   -44.5082     0.0000    18.0000 </r>
       <r>   -44.2713     0.0000    18.0000 </r>
       <r>   -44.0344     0.0000    18.0000 </r>
       <r>   -43.7974     0.0000    18.0000 </r>
       <r>   -43.5605     0.0000    18.0000 </r>
       <r>   -43.3235     0.0000    18.0000 </r>
       <r>   -43.0866     0.0000    18.0000 </r>
       <r>   -42.8497     0.0000    18.0000 </r>
       <r>   -42.6127     0.0000    18.0000 </r>
       <r>   -42.3758     0.0000    18.0000 </r>
       <r>   -42.1388     0.0000    18.0000 </r>
       <r>   -41.9019     0.0000    18.0000 </r>
       <r>   -41.6650     0.0000    18.0000 </r>
       <r>   -41.4280     0.0000    18.0000 </r>
       <r>   -41.1911     0.0000    18.0000 </r>
       <r>   -40.9541     0.0000    18.0000 </r>
       <r>   -40.7172     0.0000    18.0000 </r>
       <r>   -40.4803     0.0000    18.0000 </r>
       <r>   -40.2433     0.0000    18.0000 </r>
       <r>   -40.0064     0.0000    18.0000 </r>
       <r>   -39.7694     0.0000    18.0000 </r>
       <r>   -39.5325     0.0000    18.0000 </r>
       <r>   -39.2956     0.0000    18.0000 </r>
       <r>   -39.0586     0.0000    18.0000 </r>
       <r>   -38.8217     0.0000    18.0000 </r>
       <r>   -38.5847     0.0000    18.0000 </r>
       <r>   -38.3478     0.0000    18.0000 </r>
       <r>   -38.1109     0.0000    18.0000 </r>
       <r>   -37.8739     0.0000    18.0000 </r>
       <r>   -37.6370     0.0000    18.0000 </r>
       <r>   -37.4000     0.0000    18.0000 </r>
       <r>   -37.1631     0.0000    18.0000 </r>
       <r>   -36.9261    11.9530    20.8322 </r>
       <r>   -36.6892    59.1380    34.8444 </r>
       <r>   -36.4523    91.9413    56.6290 </r>
       <r>   -36.2153    64.7359    71.9676 </r>
       <r>   -35.9784     0.1369    72.0000 </r>
       <r>   -35.7414     0.0000    72.0000 </r>
       <r>   -35.5045     0.0000    72.0000 </r>
       <r>   -35.2676     0.0000    72.0000 </r>
       <r>   -35.0306     0.0000    72.0000 </r>
       <r>   -34.7937     0.0000    72.0000 </r>
       <r>   -34.5567     0.0000    72.0000 </r>
       <r>   -34.3198     0.0000    72.0000 </r>
       <r>   -34.0829     0.0000    72.0000 </r>
       <r>   -33.8459     0.0000    72.0000 </r>
       <r>   -33.6090     0.0000    72.0000 </r>
       <r>   -33.3720     0.0000    72.0000 </r>
       <r>   -33.1351     0.0000    72.0000 </r>
       <r>   -32.8982     0.0000    72.0000 </r>
       <r>   -32.6612     0.0000    72.0000 </r>
       <r>   -32.4243     0.0000    72.0000 </r>
       <r>   -32.1873     0.0000    72.0000 </r>
       <r>   -31.9504     0.0000    72.0000 </r>
       <r>   -31.7135     0.0000    72.0000 </r>
       <r>   -31.4765     0.0000    72.0000 </r>
       <r>   -31.2396     0.0000    72.0000 </r>
       <r>   -31.0026     0.0000    72.0000 </r>
       <r>   -30.7657     0.0000    72.0000 </r>
       <r>   -30.5288     0.0000    72.0000 </r>
       <r>   -30.2918     0.0000    72.0000 </r>
       <r>   -30.0549     0.0000    72.0000 </r>
       <r>   -29.8179     0.0000    72.0000 </r>
       <r>   -29.5810     0.0000    72.0000 </r>
       <r>   -29.3440     0.0000    72.0000 </r>
       <r>   -29.1071     0.0000    72.0000 </r>
       <r>   -28.8702     0.0000    72.0000 </r>
       <r>   -28.6332     0.0000    72.0000 </r>
       <r>   -28.3963     0.0000    72.0000 </r>
       <r>   -28.1593     0.0000    72.0000 </r>
       <r>   -27.9224     0.0000    72.0000 </r>
       <r>   -27.6855     0.0000    72.0000 </r>
       <r>   -27.4485     0.0000    72.0000 </r>
       <r>   -27.2116     0.0000    72.0000 </r>
       <r>   -26.9746     0.0000    72.0000 </r>
       <r>   -26.7377     0.0000    72.0000 </r>
       <r>   -26.5008     0.0000    72.0000 </r>
       <r>   -26.2638     0.0000    72.0000 </r>
       <r>   -26.0269     0.0000    72.0000 </r>
       <r>   -25.7899     0.0000    72.0000 </r>
       <r>   -25.5530     0.0000    72.0000 </r>
       <r>   -25.3161     0.0000    72.0000 </r>
       <r>   -25.0791     0.0000    72.0000 </r>
       <r>   -24.8422     0.0000    72.0000 </r>
       <r>   -24.6052     0.0000    72.0000 </r>
       <r>   -24.3683     0.0000    72.0000 </r>
       <r>   -24.1314     0.0000    72.0000 </r>
       <r>   -23.8944     0.0000    72.0000 </r>
       <r>   -23.6575     0.0000    72.0000 </r>
       <r>   -23.4205     0.0000    72.0000 </r>
       <r>   -23.1836     0.0000    72.0000 </r>
       <r>   -22.9466     0.0000    72.0000 </r>
       <r>   -22.7097     0.0000    72.0000 </r>
       <r>   -22.4728     0.0000    72.0000 </r>
       <r>   -22.2358     0.0000    72.0000 </r>
       <r>   -21.9989     0.0000    72.0000 </r>
       <r>   -21.7619     0.0000    72.0000 </r>
       <r>   -21.5250     0.0000    72.0000 </r>
       <r>   -21.2881     0.0000    72.0000 </r>
       <r>   -21.0511     0.0000    72.0000 </r>
       <r>   -20.8142     0.0000    72.0000 </r>
       <r>   -20.5772     0.0000    72.0000 </r>
       <r>   -20.3403     0.0000    72.0000 </r>
       <r>   -20.1034     0.0000    72.0000 </r>
       <r>   -19.8664     0.0000    72.0000 </r>
       <r>   -19.6295     0.0000    72.0000 </r>
       <r>   -19.3925     0.0000    72.0000 </r>
       <r>   -19.1556     0.0000    72.0000 </r>
       <r>   -18.9187     0.0000    72.0000 </r>
       <r>   -18.6817     0.0000    72.0000 </r>
       <r>   -18.4448     0.0000    72.0000 </r>
       <r>   -18.2078     0.0000    72.0000 </r>
       <r>   -17.9709     0.0000    72.0000 </r>
       <r>   -17.7340     0.0000    72.0000 </r>
       <r>   -17.4970     0.0000    72.0000 </r>
       <r>   -17.2601     0.0000    72.0000 </r>
       <r>   -17.0231     0.0000    72.0000 </r>
       <r>   -16.7862     0.0000    72.0000 </r>
       <r>   -16.5493     0.0000    72.0000 </r>
       <r>   -16.3123     0.0000    72.0000 </r>
       <r>   -16.0754     0.0000    72.0000 </r>
       <r>   -15.8384     0.0000    72.0000 </r>
       <r>   -15.6015     1.9078    72.4520 </r>
       <r>   -15.3645     4.9949    73.6355 </r>
       <r>   -15.1276     4.7705    74.7659 </r>
       <r>   -14.8907     5.3189    76.0261 </r>
       <r>   -14.6537     6.8141    77.6407 </r>
       <r>   -14.4168    15.0198    81.1995 </r>
       <r>   -14.1798    21.3116    86.2491 </r>
       <r>   -13.9429    27.2119    92.6967 </r>
       <r>   -13.7060    26.5487    98.9871 </r>
       <r>   -13.4690    15.4934   102.6582 </r>
       <r>   -13.2321    14.0708   105.9921 </r>
       <r>   -12.9951     8.4731   107.9997 </r>
       <r>   -12.7582     0.0011   108.0000 </r>
       <r>   -12.5213     0.0000   108.0000 </r>
       <r>   -12.2843     0.0000   108.0000 </r>
       <r>   -12.0474     0.0000   108.0000 </r>
       <r>   -11.8104     0.0000   108.0000 </r>
       <r>   -11.5735     0.0000   108.0000 </r>
       <r>   -11.3366     0.0000   108.0000 </r>
       <r>   -11.0996     0.0000   108.0000 </r>
       <r>   -10.8627     0.0000   108.0000 </r>
       <r>   -10.6257     0.0000   108.0000 </r>
       <r>   -10.3888     0.0000   108.0000 </r>
       <r>   -10.1519     0.0000   108.0000 </r>
       <r>    -9.9149     0.0000   108.0000 </r>
       <r>    -9.6780     0.0000   108.0000 </r>
       <r>    -9.4410     0.0000   108.0000 </r>
       <r>    -9.2041     0.0000   108.0000 </r>
       <r>    -8.9672     0.0000   108.0000 </r>
       <r>    -8.7302     0.0000   108.0000 </r>
       <r>    -8.4933     0.0000   108.0000 </r>
       <r>    -8.2563     0.0000   108.0000 </r>
       <r>    -8.0194     0.0000   108.0000 </r>
       <r>    -7.7824     0.0231   108.0055 </r>
       <r>    -7.5455     5.5169   109.3126 </r>
       <r>    -7.3086     8.7215   111.3791 </r>
       <r>    -7.0716     9.9377   113.7338 </r>
       <r>    -6.8347    17.0955   117.7844 </r>
       <r>    -6.5977    17.4275   121.9137 </r>
       <r>    -6.3608    28.6498   128.7020 </r>
       <r>    -6.1239    28.0935   135.3584 </r>
       <r>    -5.8869    16.5388   139.2772 </r>
       <r>    -5.6500    21.0595   144.2670 </r>
       <r>    -5.4130    18.9357   148.7537 </r>
       <r>    -5.1761    32.2527   156.3957 </r>
       <r>    -4.9392    29.8873   163.4772 </r>
       <r>    -4.7022    22.2663   168.7529 </r>
       <r>    -4.4653    22.1785   174.0079 </r>
       <r>    -4.2283    30.0453   181.1269 </r>
       <r>    -3.9914    21.4388   186.2066 </r>
       <r>    -3.7545    24.6752   192.0532 </r>
       <r>    -3.5175    17.5264   196.2059 </r>
       <r>    -3.2806    13.1154   199.3135 </r>
       <r>    -3.0436    15.3951   202.9612 </r>
       <r>    -2.8067    18.6352   207.3766 </r>
       <r>    -2.5698    15.4299   211.0326 </r>
       <r>    -2.3328    21.6014   216.1508 </r>
       <r>    -2.0959    22.0484   221.3750 </r>
       <r>    -1.8589    22.3787   226.6774 </r>
       <r>    -1.6220    20.0141   231.4196 </r>
       <r>    -1.3850    10.8230   233.9840 </r>
       <r>    -1.1481     0.0675   234.0000 </r>
       <r>    -0.9112     0.0000   234.0000 </r>
       <r>    -0.6742     5.6334   235.3348 </r>
       <r>    -0.4373     9.7172   237.6372 </r>
       <r>    -0.2003    13.9994   240.9542 </r>
       <r>     0.0366    25.5968   247.0191 </r>
       <r>     0.2735    21.0909   252.0164 </r>
       <r>     0.5105     9.7672   254.3307 </r>
       <r>     0.7474    15.5355   258.0117 </r>
       <r>     0.9844    13.7508   261.2698 </r>
       <r>     1.2213    33.8715   269.2953 </r>
       <r>     1.4582    22.2726   274.5726 </r>
       <r>     1.6952    13.2395   277.7096 </r>
       <r>     1.9321     8.2499   279.6643 </r>
       <r>     2.1691     1.4168   280.0000 </r>
       <r>     2.4060     0.0000   280.0000 </r>
       <r>     2.6429     0.0000   280.0000 </r>
       <r>     2.8799     0.0000   280.0000 </r>
       <r>     3.1168     0.0000   280.0000 </r>
       <r>     3.3538     0.0000   280.0000 </r>
       <r>     3.5907     0.0000   280.0000 </r>
       <r>     3.8276     0.0000   280.0000 </r>
       <r>     4.0646     0.0000   280.0000 </r>
       <r>     4.3015     0.0000   280.0000 </r>
       <r>     4.5385     0.0000   280.0000 </r>
       <r>     4.7754     0.0000   280.0000 </r>
       <r>     5.0123     0.0000   280.0000 </r>
       <r>     5.2493     0.0000   280.0000 </r>
      </set>
     </set>
    </array>
   </total>
  </dos>
 </calculation>
 <structure name="finalpos" >
  <crystal>
   <varray name="basis" >
    <v>       9.56424100       0.00000000       0.00000000 </v>
    <v>      -4.78212000       8.28287600       0.00000000 </v>
    <v>      -0.00000000       0.00000000      18.15827300 </v>
   </varray>
   <i name="volume">   1438.48789588 </i>
   <varray name="rec_basis" >
    <v>       0.10455613       0.06036550       0.00000000 </v>
    <v>       0.00000000       0.12073101      -0.00000000 </v>
    <v>       0.00000000      -0.00000000       0.05507132 </v>
   </varray>
  </crystal>
  <varray name="positions" >
   <v>       0.03376371       0.01855966       0.49659714 </v>
   <v>       0.31725084       0.34738159       0.50144467 </v>
   <v>       0.65395073       0.02725073       0.49765782 </v>
   <v>       0.30722886       0.96769100       0.49903825 </v>
   <v>       0.37479642       0.68408261       0.50368955 </v>
   <v>       0.69540513       0.33446840       0.49510898 </v>
   <v>       0.98125620       0.30411678       0.49883155 </v>
   <v>       0.65689738       0.64132801       0.49959944 </v>
   <v>       0.97649210       0.67857273       0.50118415 </v>
   <v>       0.54238243       0.11705844       0.58330405 </v>
   <v>       0.23589432       0.11042302       0.58663569 </v>
   <v>       0.12059895       0.22938747       0.40848419 </v>
   <v>       0.21841302       0.44656584       0.58512282 </v>
   <v>       0.11044569       0.55443900       0.43924484 </v>
   <v>       0.21527695       0.76304111       0.58452631 </v>
   <v>       0.10476076       0.87742175       0.41171100 </v>
   <v>       0.42633883       0.21185942       0.42422590 </v>
   <v>       0.44945911       0.89102353       0.41132289 </v>
   <v>       0.54485828       0.43222866       0.58364669 </v>
   <v>       0.57292950       0.79618353       0.58862704 </v>
   <v>       0.44392858       0.56894901       0.40792686 </v>
   <v>       0.88470556       0.09674119       0.58410318 </v>
   <v>       0.78718651       0.22018209       0.40473441 </v>
   <v>       0.89379977       0.44156573       0.58358286 </v>
   <v>       0.77271304       0.54696581       0.41073244 </v>
   <v>       0.89213672       0.79488163       0.59060970 </v>
   <v>       0.79302410       0.89075603       0.43194934 </v>
  </varray>
 </structure>
</modeling>
