<?xml version="1.0" encoding="ISO-8859-1"?>
<modeling>
 <generator>
  <i name="program" type="string">vasp </i>
  <i name="version" type="string">6.2.0  </i>
  <i name="subversion" type="string">18Jan21 (build Mar 25 2021 14:28:09) complex                          parallel </i>
  <i name="platform" type="string">LinuxGNU </i>
  <i name="date" type="string">2021 12 20 </i>
  <i name="time" type="string">09:50:02 </i>
 </generator>
 <incar>
  <i type="string" name="SYSTEM">benzene</i>
  <i type="int" name="ISTART">     0</i>
  <i type="string" name="PREC">Accurate</i>
  <i type="string" name="ALGO">Normal</i>
  <i type="int" name="NELM">   200</i>
  <i type="int" name="IBRION">    -1</i>
  <i name="EDIFF">      0.00000100</i>
  <i type="int" name="NSW">     0</i>
  <i name="ENCUT">    600.00000000</i>
  <i type="logical" name="LREAL"> F  </i>
  <i type="int" name="ISMEAR">     0</i>
  <i name="SIGMA">      0.05000000</i>
  <i type="logical" name="LWAVE"> F  </i>
  <i type="logical" name="LCHARG"> T  </i>
  <i type="string" name="GGA">PE</i>
 </incar>
 <primitive_cell>
  <structure name="primitive_cell" >
   <crystal>
    <varray name="basis" >
     <v>      10.58354422       0.00000000       0.00000000 </v>
     <v>       0.00000000      10.58354422       0.00000000 </v>
     <v>       0.00000000       0.00000000      10.58354422 </v>
    </varray>
    <i name="volume">   1185.47769178 </i>
    <varray name="rec_basis" >
     <v>       0.09448631       0.00000000       0.00000000 </v>
     <v>       0.00000000       0.09448631       0.00000000 </v>
     <v>       0.00000000       0.00000000       0.09448631 </v>
    </varray>
   </crystal>
   <varray name="positions" >
    <v>       0.49572035       0.62853935       0.49848360 </v>
    <v>       0.38416870       0.56359335       0.49836615 </v>
    <v>       0.38919630       0.43428800       0.49431740 </v>
    <v>       0.50275825       0.36256495       0.49803855 </v>
    <v>       0.61954625       0.42897020       0.50198970 </v>
    <v>       0.61498445       0.56778230       0.50556695 </v>
    <v>       0.49105430       0.73808250       0.49813560 </v>
    <v>       0.30571700       0.63013685       0.50726695 </v>
    <v>       0.29872710       0.37899100       0.49660000 </v>
    <v>       0.49409865       0.26430395       0.50579285 </v>
    <v>       0.70194990       0.37934610       0.49776465 </v>
    <v>       0.70207890       0.62340145       0.49767755 </v>
   </varray>
  </structure>
  <varray name="primitive_index" >
   <v type="int" >        1 </v>
   <v type="int" >        2 </v>
   <v type="int" >        3 </v>
   <v type="int" >        4 </v>
   <v type="int" >        5 </v>
   <v type="int" >        6 </v>
   <v type="int" >        7 </v>
   <v type="int" >        8 </v>
   <v type="int" >        9 </v>
   <v type="int" >       10 </v>
   <v type="int" >       11 </v>
   <v type="int" >       12 </v>
  </varray>
 </primitive_cell>
 <kpoints>
  <generation param="Gamma">
   <v type="int" name="divisions">       1        1        1 </v>
   <v name="usershift">      0.00000000       0.00000000       0.00000000 </v>
   <v name="genvec1">      1.00000000       0.00000000       0.00000000 </v>
   <v name="genvec2">      0.00000000       1.00000000       0.00000000 </v>
   <v name="genvec3">      0.00000000       0.00000000       1.00000000 </v>
   <v name="shift">      0.00000000       0.00000000       0.00000000 </v>
  </generation>
  <varray name="kpointlist" >
   <v>       0.00000000       0.00000000       0.00000000 </v>
  </varray>
  <varray name="weights" >
   <v>       1.00000000 </v>
  </varray>
 </kpoints>
 <parameters>
  <separator name="general" >
   <i type="string" name="SYSTEM">benzene</i>
   <i type="logical" name="LCOMPAT"> F  </i>
  </separator>
  <separator name="electronic" >
   <i type="string" name="PREC">accura</i>
   <i name="ENMAX">    600.00000000</i>
   <i name="ENAUG">    644.87300000</i>
   <i name="EDIFF">      0.00000100</i>
   <i type="int" name="IALGO">    38</i>
   <i type="int" name="IWAVPR">    10</i>
   <i type="int" name="NBANDS">    24</i>
   <i type="int" name="NBANDSLOW">    -1</i>
   <i type="int" name="NBANDSHIGH">    -1</i>
   <i name="NELECT">     30.00000000</i>
   <i type="int" name="TURBO">     0</i>
   <i type="int" name="IRESTART">     0</i>
   <i type="int" name="NREBOOT">     0</i>
   <i type="int" name="NMIN">     0</i>
   <i name="EREF">      0.00000000</i>
   <separator name="electronic smearing" >
    <i type="int" name="ISMEAR">     0</i>
    <i name="SIGMA">      0.05000000</i>
    <i name="KSPACING">      0.50000000</i>
    <i type="logical" name="KGAMMA"> T  </i>
    <i type="logical" name="KBLOWUP"> T  </i>
   </separator>
   <separator name="electronic projectors" >
    <i type="logical" name="LREAL"> F  </i>
    <v name="ROPT">      0.00000000      0.00000000</v>
    <i type="int" name="LMAXPAW">  -100</i>
    <i type="int" name="LMAXMIX">     2</i>
    <i type="logical" name="NLSPLINE"> F  </i>
   </separator>
   <separator name="electronic startup" >
    <i type="int" name="ISTART">     0</i>
    <i type="int" name="ICHARG">     2</i>
    <i type="int" name="INIWAV">     1</i>
   </separator>
   <separator name="electronic spin" >
    <i type="int" name="ISPIN">     1</i>
    <i type="logical" name="LNONCOLLINEAR"> F  </i>
    <v name="MAGMOM">      1.00000000      1.00000000      1.00000000      1.00000000      1.00000000      1.00000000      1.00000000      1.00000000      1.00000000      1.00000000      1.00000000      1.00000000</v>
    <i name="NUPDOWN">     -1.00000000</i>
    <i type="logical" name="LSORBIT"> F  </i>
    <v name="SAXIS">      0.00000000      0.00000000      1.00000000</v>
    <i type="logical" name="LSPIRAL"> F  </i>
    <v name="QSPIRAL">      0.00000000      0.00000000      0.00000000</v>
    <i type="logical" name="LZEROZ"> F  </i>
   </separator>
   <separator name="electronic exchange-correlation" >
    <i type="logical" name="LASPH"> F  </i>
    <i type="logical" name="LMETAGGA"> F  </i>
   </separator>
   <separator name="electronic convergence" >
    <i type="int" name="NELM">   200</i>
    <i type="int" name="NELMDL">    -5</i>
    <i type="int" name="NELMIN">     2</i>
    <i name="ENINI">    600.00000000</i>
    <separator name="electronic convergence detail" >
     <i type="logical" name="LDIAG"> T  </i>
     <i type="logical" name="LSUBROT"> F  </i>
     <i name="WEIMIN">      0.00000000</i>
     <i name="EBREAK">      0.00000001</i>
     <i name="DEPER">      0.30000000</i>
     <i type="int" name="NRMM">     4</i>
     <i name="TIME">      0.40000000</i>
    </separator>
   </separator>
   <separator name="electronic mixer" >
    <i name="AMIX">      0.40000000</i>
    <i name="BMIX">      1.00000000</i>
    <i name="AMIN">      0.10000000</i>
    <i name="AMIX_MAG">      1.60000000</i>
    <i name="BMIX_MAG">      1.00000000</i>
    <separator name="electronic mixer details" >
     <i type="int" name="IMIX">     4</i>
     <i type="logical" name="MIXFIRST"> F  </i>
     <i type="int" name="MAXMIX">   -45</i>
     <i name="WC">    100.00000000</i>
     <i type="int" name="INIMIX">     1</i>
     <i type="int" name="MIXPRE">     1</i>
     <i type="int" name="MREMOVE">     5</i>
    </separator>
   </separator>
   <separator name="electronic dipolcorrection" >
    <i type="logical" name="LDIPOL"> F  </i>
    <i type="logical" name="LMONO"> F  </i>
    <i type="int" name="IDIPOL">     0</i>
    <i name="EPSILON">      1.00000000</i>
    <v name="DIPOL">   -100.00000000   -100.00000000   -100.00000000</v>
    <i name="EFIELD">      0.00000000</i>
   </separator>
  </separator>
  <separator name="grids" >
   <i type="int" name="NGX">    90</i>
   <i type="int" name="NGY">    90</i>
   <i type="int" name="NGZ">    90</i>
   <i type="int" name="NGXF">   180</i>
   <i type="int" name="NGYF">   180</i>
   <i type="int" name="NGZF">   180</i>
   <i type="logical" name="ADDGRID"> F  </i>
  </separator>
  <separator name="ionic" >
   <i type="int" name="NSW">     0</i>
   <i type="int" name="IBRION">    -1</i>
   <i type="int" name="MDALGO">     0</i>
   <i type="int" name="ISIF">     2</i>
   <i name="PSTRESS">      0.00000000</i>
   <i name="EDIFFG">      0.00001000</i>
   <i type="int" name="NFREE">     0</i>
   <i name="POTIM">      0.50000000</i>
   <i name="SMASS">     -3.00000000</i>
   <i name="SCALEE">      1.00000000</i>
  </separator>
  <separator name="ionic md" >
   <i name="TEBEG">      0.00010000</i>
   <i name="TEEND">      0.00010000</i>
   <i type="int" name="NBLOCK">     1</i>
   <i type="int" name="KBLOCK">     1</i>
   <i type="int" name="NPACO">   256</i>
   <i name="APACO">     16.00000000</i>
  </separator>
  <separator name="symmetry" >
   <i type="int" name="ISYM">     2</i>
   <i name="SYMPREC">      0.00001000</i>
  </separator>
  <separator name="dos" >
   <i type="int" name="LORBIT">     0</i>
   <v name="RWIGS">     -1.00000000     -1.00000000</v>
   <i type="int" name="NEDOS">   301</i>
   <i name="EMIN">     10.00000000</i>
   <i name="EMAX">    -10.00000000</i>
   <i name="EFERMI">      0.00000000</i>
  </separator>
  <separator name="writing" >
   <i type="int" name="NWRITE">     2</i>
   <i type="logical" name="LWAVE"> F  </i>
   <i type="logical" name="LDOWNSAMPLE"> F  </i>
   <i type="logical" name="LCHARG"> T  </i>
   <i type="logical" name="LPARD"> F  </i>
   <i type="logical" name="LVTOT"> F  </i>
   <i type="logical" name="LVHAR"> F  </i>
   <i type="logical" name="LELF"> F  </i>
   <i type="logical" name="LOPTICS"> F  </i>
   <v name="STM">      0.00000000      0.00000000      0.00000000      0.00000000      0.00000000      0.00000000      0.00000000</v>
  </separator>
  <separator name="performance" >
   <i type="int" name="NPAR">     4</i>
   <i type="int" name="NSIM">     4</i>
   <i type="int" name="NBLK">    -1</i>
   <i type="logical" name="LPLANE"> T  </i>
   <i type="logical" name="LSCALAPACK"> T  </i>
   <i type="logical" name="LSCAAWARE"> F  </i>
   <i type="logical" name="LSCALU"> F  </i>
   <i type="logical" name="LASYNC"> F  </i>
   <i type="logical" name="LORBITALREAL"> F  </i>
  </separator>
  <separator name="miscellaneous" >
   <i type="int" name="IDIOT">     3</i>
   <i type="int" name="PHON_NSTRUCT">    -1</i>
   <i type="logical" name="LMUSIC"> F  </i>
   <v name="POMASS">     12.01100000      1.00000000</v>
   <v name="DARWINR">      0.00000000      0.00000000</v>
   <v name="DARWINV">      1.00000000      1.00000000</v>
   <i type="logical" name="LCORR"> T  </i>
  </separator>
  <i type="logical" name="GGA_COMPAT"> T  </i>
  <i type="logical" name="LBERRY"> F  </i>
  <i type="int" name="ICORELEVEL">     0</i>
  <i type="logical" name="LDAU"> F  </i>
  <i type="int" name="I_CONSTRAINED_M">     0</i>
  <separator name="electronic exchange-correlation" >
   <i type="string" name="GGA">PE</i>
   <i type="int" name="VOSKOWN">     0</i>
   <i type="logical" name="LHFCALC"> F  </i>
   <i type="string" name="PRECFOCK"></i>
   <i type="logical" name="LSYMGRAD"> F  </i>
   <i type="logical" name="LHFONE"> F  </i>
   <i type="logical" name="LRHFCALC"> F  </i>
   <i type="logical" name="LTHOMAS"> F  </i>
   <i type="logical" name="LMODELHF"> F  </i>
   <i type="logical" name="LFOCKACE"> F  </i>
   <i name="ENCUT4O">     -1.00000000</i>
   <i type="int" name="EXXOEP">     0</i>
   <i type="int" name="FOURORBIT">     0</i>
   <i name="AEXX">      0.00000000</i>
   <i name="HFALPHA">      0.00000000</i>
   <i name="MCALPHA">      0.00000000</i>
   <i name="ALDAX">      1.00000000</i>
   <i name="AGGAX">      1.00000000</i>
   <i name="ALDAC">      1.00000000</i>
   <i name="AGGAC">      1.00000000</i>
   <i type="int" name="NKREDX">     1</i>
   <i type="int" name="NKREDY">     1</i>
   <i type="int" name="NKREDZ">     1</i>
   <i type="logical" name="SHIFTRED"> F  </i>
   <i type="logical" name="ODDONLY"> F  </i>
   <i type="logical" name="EVENONLY"> F  </i>
   <i type="int" name="LMAXFOCK">     0</i>
   <i type="int" name="NMAXFOCKAE">     0</i>
   <i type="logical" name="LFOCKAEDFT"> F  </i>
   <i name="HFSCREEN">      0.00000000</i>
   <i name="HFSCREENC">      0.00000000</i>
   <i type="int" name="NBANDSGWLOW">     0</i>
  </separator>
  <separator name="vdW DFT" >
   <i type="logical" name="LUSE_VDW"> F  </i>
   <i name="Zab_VDW">     -0.84910000</i>
   <i name="PARAM1">      0.12340000</i>
   <i name="PARAM2">      1.00000000</i>
   <i name="PARAM3">      0.00000000</i>
  </separator>
  <separator name="model GW" >
   <i type="int" name="MODEL_GW">     0</i>
   <i name="MODEL_EPS0">     59.27388459</i>
   <i name="MODEL_ALPHA">      1.00000000</i>
  </separator>
  <separator name="linear response parameters" >
   <i type="logical" name="LEPSILON"> F  </i>
   <i type="logical" name="LRPA"> F  </i>
   <i type="logical" name="LNABLA"> F  </i>
   <i type="logical" name="LVEL"> F  </i>
   <i type="int" name="KINTER">     0</i>
   <i name="CSHIFT">      0.10000000</i>
   <i name="OMEGAMAX">     -1.00000000</i>
   <i name="DEG_THRESHOLD">      0.00200000</i>
   <i name="RTIME">     -0.10000000</i>
   <i name="WPLASMAI">      0.00000000</i>
   <v name="DFIELD">      0.00000000      0.00000000      0.00000000</v>
   <v name="WPLASMA">      0.00000000      0.00000000      0.00000000      0.00000000      0.00000000      0.00000000      0.00000000      0.00000000      0.00000000</v>
  </separator>
  <separator name="orbital magnetization" >
   <i type="logical" name="NUCIND"> F  </i>
   <v name="MAGPOS">      0.00000000      0.00000000      0.00000000</v>
   <i type="logical" name="LNICSALL"> T  </i>
   <i type="logical" name="ORBITALMAG"> F  </i>
   <i type="logical" name="LMAGBLOCH"> F  </i>
   <i type="logical" name="LCHIMAG"> F  </i>
   <i type="logical" name="LGAUGE"> T  </i>
   <i type="int" name="MAGATOM">     0</i>
   <v name="MAGDIPOL">      0.00000000      0.00000000      0.00000000</v>
   <v name="AVECCONST">      0.00000000      0.00000000      0.00000000</v>
  </separator>
  <separator name="response functions" >
   <i type="logical" name="LFINITE_TEMPERATURE"> F  </i>
   <i type="logical" name="LADDER"> F  </i>
   <i type="logical" name="LRPAFORCE"> F  </i>
   <i type="logical" name="LFXC"> F  </i>
   <i type="logical" name="LHARTREE"> T  </i>
   <i type="int" name="IBSE">     0</i>
   <v type="int" name="KPOINT">    -1     0     0     0</v>
   <i type="logical" name="LTCTC"> F  </i>
   <i type="logical" name="LTCTE"> F  </i>
   <i type="logical" name="LTETE"> F  </i>
   <i type="logical" name="LTRIPLET"> F  </i>
   <i type="logical" name="LFXCEPS"> F  </i>
   <i type="logical" name="LFXHEG"> F  </i>
   <i type="int" name="NATURALO">     2</i>
   <i type="logical" name="LHOLEGF"> F  </i>
   <i type="logical" name="L2ORDER"> F  </i>
   <i type="logical" name="LDMP1"> F  </i>
   <i type="logical" name="LMP2LT"> F  </i>
   <i type="logical" name="LSMP2LT"> F  </i>
   <i type="logical" name="LGWLF"> F  </i>
   <i name="ENCUTGW">     -2.00000000</i>
   <i name="ENCUTGWSOFT">     -2.00000000</i>
   <i name="ENCUTLF">     -1.00000000</i>
   <i type="logical" name="LESF_SPLINES"> F  </i>
   <i type="int" name="LMAXMP2">    -1</i>
   <i name="SCISSOR">      0.00000000</i>
   <i type="int" name="NOMEGA">     0</i>
   <i type="int" name="NOMEGAR">     0</i>
   <i type="int" name="NBANDSGW">    -1</i>
   <i type="int" name="NBANDSO">    -1</i>
   <i type="int" name="NBANDSV">    -1</i>
   <i type="int" name="NELM">   200</i>
   <i type="int" name="NELMHF">     1</i>
   <i type="int" name="DIM">     3</i>
   <i type="int" name="IESPILON">     4</i>
   <i type="int" name="ANTIRES">     0</i>
   <i name="OMEGAMAX">    -30.00000000</i>
   <i name="OMEGAMIN">    -30.00000000</i>
   <i name="OMEGATL">   -200.00000000</i>
   <i type="int" name="OMEGAGRID">     0</i>
   <i name="CSHIFT">     -0.10000000</i>
   <i type="logical" name="LSELFENERGY"> F  </i>
   <i type="logical" name="LSPECTRAL"> F  </i>
   <i type="logical" name="LSPECTRALGW"> F  </i>
   <i type="logical" name="LSINGLES"> F  </i>
   <i type="logical" name="LFERMIGW"> F  </i>
   <i type="logical" name="ODDONLYGW"> F  </i>
   <i type="logical" name="EVENONLYGW"> F  </i>
   <i type="int" name="NKREDLFX">     1</i>
   <i type="int" name="NKREDLFY">     1</i>
   <i type="int" name="NKREDLFZ">     1</i>
   <i type="int" name="MAXMEM">  2800</i>
   <i type="int" name="TELESCOPE">     0</i>
   <i type="int" name="NTAUPAR">    -1</i>
   <i type="int" name="NOMEGAPAR">    -1</i>
   <i name="DAMP_NEWTON">      0.80000001</i>
   <i name="LAMBDA">      1.00000000</i>
  </separator>
  <separator name="External order field" >
   <i name="OFIELD_KAPPA">      0.00000000</i>
   <v name="OFIELD_K">      0.00000000      0.00000000      0.00000000</v>
   <i name="OFIELD_Q6_NEAR">      0.00000000</i>
   <i name="OFIELD_Q6_FAR">      0.00000000</i>
   <i name="OFIELD_A">      0.00000000</i>
  </separator>
 </parameters>
 <atominfo>
  <atoms>      12 </atoms>
  <types>       2 </types>
  <array name="atoms" >
   <dimension dim="1">ion</dimension>
   <field type="string">element</field>
   <field type="int">atomtype</field>
   <set>
    <rc><c>C </c><c>   1</c></rc>
    <rc><c>C </c><c>   1</c></rc>
    <rc><c>C </c><c>   1</c></rc>
    <rc><c>C </c><c>   1</c></rc>
    <rc><c>C </c><c>   1</c></rc>
    <rc><c>C </c><c>   1</c></rc>
    <rc><c>H </c><c>   2</c></rc>
    <rc><c>H </c><c>   2</c></rc>
    <rc><c>H </c><c>   2</c></rc>
    <rc><c>H </c><c>   2</c></rc>
    <rc><c>H </c><c>   2</c></rc>
    <rc><c>H </c><c>   2</c></rc>
   </set>
  </array>
  <array name="atomtypes" >
   <dimension dim="1">type</dimension>
   <field type="int">atomspertype</field>
   <field type="string">element</field>
   <field>mass</field>
   <field>valence</field>
   <field type="string">pseudopotential</field>
   <set>
    <rc><c>   6</c><c>C </c><c>     12.01100000</c><c>      4.00000000</c><c>  PAW_PBE C 08Apr2002                   </c></rc>
    <rc><c>   6</c><c>H </c><c>      1.00000000</c><c>      1.00000000</c><c>  PAW_PBE H 15Jun2001                   </c></rc>
   </set>
  </array>
 </atominfo>
 <structure name="initialpos" >
  <crystal>
   <varray name="basis" >
    <v>      10.58354422       0.00000000       0.00000000 </v>
    <v>       0.00000000      10.58354422       0.00000000 </v>
    <v>       0.00000000       0.00000000      10.58354422 </v>
   </varray>
   <i name="volume">   1185.47769178 </i>
   <varray name="rec_basis" >
    <v>       0.09448631       0.00000000       0.00000000 </v>
    <v>       0.00000000       0.09448631       0.00000000 </v>
    <v>       0.00000000       0.00000000       0.09448631 </v>
   </varray>
  </crystal>
  <varray name="positions" >
   <v>       0.49572035       0.62853935       0.49848360 </v>
   <v>       0.38416870       0.56359335       0.49836615 </v>
   <v>       0.38919630       0.43428800       0.49431740 </v>
   <v>       0.50275825       0.36256495       0.49803855 </v>
   <v>       0.61954625       0.42897020       0.50198970 </v>
   <v>       0.61498445       0.56778230       0.50556695 </v>
   <v>       0.49105430       0.73808250       0.49813560 </v>
   <v>       0.30571700       0.63013685       0.50726695 </v>
   <v>       0.29872710       0.37899100       0.49660000 </v>
   <v>       0.49409865       0.26430395       0.50579285 </v>
   <v>       0.70194990       0.37934610       0.49776465 </v>
   <v>       0.70207890       0.62340145       0.49767755 </v>
  </varray>
 </structure>
 <calculation>
  <scstep>
   <time name="dav">    0.21    0.21</time>
   <time name="total">    0.47    0.47</time>
   <energy>
    <i name="alphaZ">      3.48814018 </i>
    <i name="ewald">   1111.91460913 </i>
    <i name="hartreedc">  -1749.37582738 </i>
    <i name="XCdc">     91.09119238 </i>
    <i name="pawpsdc">    663.93644290 </i>
    <i name="pawaedc">   -667.40614445 </i>
    <i name="eentropy">     -0.00000000 </i>
    <i name="bandstr">   -197.59352460 </i>
    <i name="atom">    957.82965714 </i>
    <i name="e_fr_energy">    213.88454529 </i>
    <i name="e_wo_entrp">    213.88454529 </i>
    <i name="e_0_energy">    213.88454529 </i>
   </energy>
  </scstep>
  <scstep>
   <time name="dav">    0.25    0.25</time>
   <time name="total">    0.25    0.25</time>
   <energy>
    <i name="e_fr_energy">     -3.23803676 </i>
    <i name="e_wo_entrp">     -3.23803676 </i>
    <i name="e_0_energy">     -3.23803676 </i>
   </energy>
  </scstep>
  <scstep>
   <time name="dav">    0.21    0.21</time>
   <time name="total">    0.21    0.21</time>
   <energy>
    <i name="e_fr_energy">    -77.64740610 </i>
    <i name="e_wo_entrp">    -77.64740610 </i>
    <i name="e_0_energy">    -77.64740610 </i>
   </energy>
  </scstep>
  <scstep>
   <time name="dav">    0.18    0.19</time>
   <time name="total">    0.18    0.19</time>
   <energy>
    <i name="e_fr_energy">    -83.24919655 </i>
    <i name="e_wo_entrp">    -83.24919655 </i>
    <i name="e_0_energy">    -83.24919655 </i>
   </energy>
  </scstep>
  <scstep>
   <time name="dav">    0.25    0.25</time>
   <time name="total">    0.28    0.29</time>
   <energy>
    <i name="e_fr_energy">    -83.36556392 </i>
    <i name="e_wo_entrp">    -83.36556392 </i>
    <i name="e_0_energy">    -83.36556392 </i>
   </energy>
  </scstep>
  <scstep>
   <time name="dav">    0.22    0.22</time>
   <time name="total">    0.51    0.52</time>
   <energy>
    <i name="e_fr_energy">    -77.30517636 </i>
    <i name="e_wo_entrp">    -77.30517636 </i>
    <i name="e_0_energy">    -77.30517636 </i>
   </energy>
  </scstep>
  <scstep>
   <time name="dav">    0.25    0.25</time>
   <time name="total">    0.54    0.55</time>
   <energy>
    <i name="e_fr_energy">    -75.55576185 </i>
    <i name="e_wo_entrp">    -75.55576185 </i>
    <i name="e_0_energy">    -75.55576185 </i>
   </energy>
  </scstep>
  <scstep>
   <time name="dav">    0.20    0.21</time>
   <time name="total">    0.50    0.50</time>
   <energy>
    <i name="e_fr_energy">    -75.38989727 </i>
    <i name="e_wo_entrp">    -75.38989727 </i>
    <i name="e_0_energy">    -75.38989727 </i>
   </energy>
  </scstep>
  <scstep>
   <time name="dav">    0.25    0.25</time>
   <time name="total">    0.54    0.54</time>
   <energy>
    <i name="e_fr_energy">    -75.36451445 </i>
    <i name="e_wo_entrp">    -75.36451445 </i>
    <i name="e_0_energy">    -75.36451445 </i>
   </energy>
  </scstep>
  <scstep>
   <time name="dav">    0.18    0.18</time>
   <time name="total">    0.47    0.48</time>
   <energy>
    <i name="e_fr_energy">    -75.35910179 </i>
    <i name="e_wo_entrp">    -75.35910179 </i>
    <i name="e_0_energy">    -75.35910179 </i>
   </energy>
  </scstep>
  <scstep>
   <time name="dav">    0.20    0.20</time>
   <time name="total">    0.49    0.49</time>
   <energy>
    <i name="e_fr_energy">    -75.35403132 </i>
    <i name="e_wo_entrp">    -75.35403132 </i>
    <i name="e_0_energy">    -75.35403132 </i>
   </energy>
  </scstep>
  <scstep>
   <time name="dav">    0.19    0.19</time>
   <time name="total">    0.47    0.47</time>
   <energy>
    <i name="e_fr_energy">    -75.35803735 </i>
    <i name="e_wo_entrp">    -75.35803735 </i>
    <i name="e_0_energy">    -75.35803735 </i>
   </energy>
  </scstep>
  <scstep>
   <time name="dav">    0.20    0.20</time>
   <time name="total">    0.48    0.48</time>
   <energy>
    <i name="e_fr_energy">    -75.36508723 </i>
    <i name="e_wo_entrp">    -75.36508723 </i>
    <i name="e_0_energy">    -75.36508723 </i>
   </energy>
  </scstep>
  <scstep>
   <time name="dav">    0.20    0.21</time>
   <time name="total">    0.48    0.48</time>
   <energy>
    <i name="e_fr_energy">    -75.37437404 </i>
    <i name="e_wo_entrp">    -75.37437404 </i>
    <i name="e_0_energy">    -75.37437404 </i>
   </energy>
  </scstep>
  <scstep>
   <time name="dav">    0.20    0.20</time>
   <time name="total">    0.47    0.48</time>
   <energy>
    <i name="e_fr_energy">    -75.37671788 </i>
    <i name="e_wo_entrp">    -75.37671788 </i>
    <i name="e_0_energy">    -75.37671788 </i>
   </energy>
  </scstep>
  <scstep>
   <time name="dav">    0.20    0.21</time>
   <time name="total">    0.47    0.48</time>
   <energy>
    <i name="e_fr_energy">    -75.37803051 </i>
    <i name="e_wo_entrp">    -75.37803051 </i>
    <i name="e_0_energy">    -75.37803051 </i>
   </energy>
  </scstep>
  <scstep>
   <time name="dav">    0.21    0.21</time>
   <time name="total">    0.48    0.49</time>
   <energy>
    <i name="e_fr_energy">    -75.37857901 </i>
    <i name="e_wo_entrp">    -75.37857901 </i>
    <i name="e_0_energy">    -75.37857901 </i>
   </energy>
  </scstep>
  <scstep>
   <time name="dav">    0.22    0.22</time>
   <time name="total">    0.49    0.50</time>
   <energy>
    <i name="e_fr_energy">    -75.37870280 </i>
    <i name="e_wo_entrp">    -75.37870280 </i>
    <i name="e_0_energy">    -75.37870280 </i>
   </energy>
  </scstep>
  <scstep>
   <time name="dav">    0.18    0.18</time>
   <time name="total">    0.47    0.47</time>
   <energy>
    <i name="e_fr_energy">    -75.37874305 </i>
    <i name="e_wo_entrp">    -75.37874305 </i>
    <i name="e_0_energy">    -75.37874305 </i>
   </energy>
  </scstep>
  <scstep>
   <time name="dav">    0.19    0.19</time>
   <time name="total">    0.47    0.47</time>
   <energy>
    <i name="e_fr_energy">    -75.37875550 </i>
    <i name="e_wo_entrp">    -75.37875550 </i>
    <i name="e_0_energy">    -75.37875550 </i>
   </energy>
  </scstep>
  <scstep>
   <time name="dav">    0.16    0.16</time>
   <time name="total">    0.45    0.45</time>
   <energy>
    <i name="e_fr_energy">    -75.37875991 </i>
    <i name="e_wo_entrp">    -75.37875991 </i>
    <i name="e_0_energy">    -75.37875991 </i>
   </energy>
  </scstep>
  <scstep>
   <time name="dav">    0.14    0.14</time>
   <time name="total">    0.43    0.44</time>
   <energy>
    <i name="e_fr_energy">    -75.37876123 </i>
    <i name="e_wo_entrp">    -75.37876123 </i>
    <i name="e_0_energy">    -75.37876123 </i>
   </energy>
  </scstep>
  <scstep>
   <time name="dav">    0.14    0.14</time>
   <time name="total">    0.39    0.40</time>
   <energy>
    <i name="alphaZ">      3.48814018 </i>
    <i name="ewald">   1111.91460913 </i>
    <i name="hartreedc">  -1893.54683216 </i>
    <i name="XCdc">     97.90412160 </i>
    <i name="pawpsdc">   2445.35378089 </i>
    <i name="pawaedc">  -2449.59155900 </i>
    <i name="eentropy">     -0.00000000 </i>
    <i name="bandstr">   -348.73067934 </i>
    <i name="atom">    957.82965714 </i>
    <i name="e_fr_energy">    -75.37876156 </i>
    <i name="e_wo_entrp">    -75.37876156 </i>
    <i name="e_0_energy">    -75.37876156 </i>
   </energy>
  </scstep>
  <structure>
   <crystal>
    <varray name="basis" >
     <v>      10.58354422       0.00000000       0.00000000 </v>
     <v>       0.00000000      10.58354422       0.00000000 </v>
     <v>       0.00000000       0.00000000      10.58354422 </v>
    </varray>
    <i name="volume">   1185.47769178 </i>
    <varray name="rec_basis" >
     <v>       0.09448631       0.00000000       0.00000000 </v>
     <v>       0.00000000       0.09448631       0.00000000 </v>
     <v>       0.00000000       0.00000000       0.09448631 </v>
    </varray>
   </crystal>
   <varray name="positions" >
    <v>       0.49572035       0.62853935       0.49848360 </v>
    <v>       0.38416870       0.56359335       0.49836615 </v>
    <v>       0.38919630       0.43428800       0.49431740 </v>
    <v>       0.50275825       0.36256495       0.49803855 </v>
    <v>       0.61954625       0.42897020       0.50198970 </v>
    <v>       0.61498445       0.56778230       0.50556695 </v>
    <v>       0.49105430       0.73808250       0.49813560 </v>
    <v>       0.30571700       0.63013685       0.50726695 </v>
    <v>       0.29872710       0.37899100       0.49660000 </v>
    <v>       0.49409865       0.26430395       0.50579285 </v>
    <v>       0.70194990       0.37934610       0.49776465 </v>
    <v>       0.70207890       0.62340145       0.49767755 </v>
   </varray>
  </structure>
  <varray name="forces" >
   <v>       2.50547059       2.25299252       0.42299872 </v>
   <v>      -0.07816467       0.92633838       0.03131015 </v>
   <v>      -1.24591545      -2.29849410       0.44871023 </v>
   <v>       0.13813141       3.29925433       0.05911763 </v>
   <v>      -3.67283850       3.02367109       0.06188233 </v>
   <v>      -0.53704352      -1.85350304      -0.92088504 </v>
   <v>       0.26745785      -1.80681276       0.03892449 </v>
   <v>      -0.73663711      -0.92636418      -0.26486236 </v>
   <v>       0.68676486       0.46003745      -0.07293432 </v>
   <v>       0.16348705      -1.62288746      -0.13465652 </v>
   <v>       2.64540701      -1.26863540       0.08977088 </v>
   <v>      -0.13611952      -0.18559684       0.24062380 </v>
  </varray>
  <varray name="stress" >
   <v>       1.79998630       1.64179329      -0.28687371 </v>
   <v>       1.64179329      -5.82983580      -0.19615949 </v>
   <v>      -0.28687371      -0.19615949      -0.33990032 </v>
  </varray>
  <energy>
   <i name="e_fr_energy">    -75.37876156 </i>
   <i name="e_wo_entrp">    -75.37876156 </i>
   <i name="e_0_energy">    -75.37876156 </i>
  </energy>
  <time name="totalsc">   15.10   15.32</time>
  <eigenvalues>
   <array>
    <dimension dim="1">band</dimension>
    <dimension dim="2">kpoint</dimension>
    <dimension dim="3">spin</dimension>
    <field>eigene</field>
    <field>occ</field>
    <set>
     <set comment="spin 1">
      <set comment="kpoint 1">
       <r>  -20.6711    1.0000 </r>
       <r>  -18.1379    1.0000 </r>
       <r>  -17.7568    1.0000 </r>
       <r>  -14.5767    1.0000 </r>
       <r>  -14.2632    1.0000 </r>
       <r>  -12.3866    1.0000 </r>
       <r>  -10.9004    1.0000 </r>
       <r>  -10.3798    1.0000 </r>
       <r>   -9.9132    1.0000 </r>
       <r>   -9.5643    1.0000 </r>
       <r>   -8.5465    1.0000 </r>
       <r>   -7.9007    1.0000 </r>
       <r>   -7.6127    1.0000 </r>
       <r>   -5.9627    1.0000 </r>
       <r>   -5.7927    1.0000 </r>
       <r>   -1.0221    0.0000 </r>
       <r>   -0.8776    0.0000 </r>
       <r>   -0.4514    0.0000 </r>
       <r>    0.6790    0.0000 </r>
       <r>    0.8104    0.0000 </r>
       <r>    0.8467    0.0000 </r>
       <r>    0.9389    0.0000 </r>
       <r>    0.9927    0.0000 </r>
       <r>    1.4506    0.0000 </r>
      </set>
     </set>
    </set>
   </array>
  </eigenvalues>
  <separator name="orbital magnetization" >
   <v name="MAGDIPOLOUT">      0.00000000      0.00000000      0.00000000</v>
  </separator>
  <dos>
   <i name="efermi">     -5.54448314 </i>
   <total>
    <array>
     <dimension dim="1">gridpoints</dimension>
     <dimension dim="2">spin</dimension>
     <field>energy</field>
     <field>total</field>
     <field>integrated</field>
     <set>
      <set comment="spin 1">
       <r>   -21.7771     0.0000     0.0000 </r>
       <r>   -21.6960     0.0000     0.0000 </r>
       <r>   -21.6149     0.0000     0.0000 </r>
       <r>   -21.5338     0.0000     0.0000 </r>
       <r>   -21.4527     0.0000     0.0000 </r>
       <r>   -21.3716     0.0000     0.0000 </r>
       <r>   -21.2905     0.0000     0.0000 </r>
       <r>   -21.2094     0.0000     0.0000 </r>
       <r>   -21.1282     0.0000     0.0000 </r>
       <r>   -21.0471     0.0000     0.0000 </r>
       <r>   -20.9660     0.0000     0.0000 </r>
       <r>   -20.8849     0.0000     0.0000 </r>
       <r>   -20.8038     0.0021     0.0002 </r>
       <r>   -20.7227     1.7769     0.1443 </r>
       <r>   -20.6416    17.8956     1.5959 </r>
       <r>   -20.5605     4.9607     1.9982 </r>
       <r>   -20.4793     0.0217     2.0000 </r>
       <r>   -20.3982     0.0000     2.0000 </r>
       <r>   -20.3171     0.0000     2.0000 </r>
       <r>   -20.2360     0.0000     2.0000 </r>
       <r>   -20.1549     0.0000     2.0000 </r>
       <r>   -20.0738     0.0000     2.0000 </r>
       <r>   -19.9927     0.0000     2.0000 </r>
       <r>   -19.9116     0.0000     2.0000 </r>
       <r>   -19.8304     0.0000     2.0000 </r>
       <r>   -19.7493     0.0000     2.0000 </r>
       <r>   -19.6682     0.0000     2.0000 </r>
       <r>   -19.5871     0.0000     2.0000 </r>
       <r>   -19.5060     0.0000     2.0000 </r>
       <r>   -19.4249     0.0000     2.0000 </r>
       <r>   -19.3438     0.0000     2.0000 </r>
       <r>   -19.2627     0.0000     2.0000 </r>
       <r>   -19.1815     0.0000     2.0000 </r>
       <r>   -19.1004     0.0000     2.0000 </r>
       <r>   -19.0193     0.0000     2.0000 </r>
       <r>   -18.9382     0.0000     2.0000 </r>
       <r>   -18.8571     0.0000     2.0000 </r>
       <r>   -18.7760     0.0000     2.0000 </r>
       <r>   -18.6949     0.0000     2.0000 </r>
       <r>   -18.6138     0.0000     2.0000 </r>
       <r>   -18.5326     0.0000     2.0000 </r>
       <r>   -18.4515     0.0000     2.0000 </r>
       <r>   -18.3704     0.0000     2.0000 </r>
       <r>   -18.2893     0.0002     2.0000 </r>
       <r>   -18.2082     0.5758     2.0467 </r>
       <r>   -18.1271    14.7104     3.2399 </r>
       <r>   -18.0460     9.2556     3.9907 </r>
       <r>   -17.9648     0.1151     4.0000 </r>
       <r>   -17.8837     0.0041     4.0003 </r>
       <r>   -17.8026     2.3947     4.1946 </r>
       <r>   -17.7215    18.3286     5.6813 </r>
       <r>   -17.6404     3.9174     5.9990 </r>
       <r>   -17.5593     0.0123     6.0000 </r>
       <r>   -17.4782     0.0000     6.0000 </r>
       <r>   -17.3971     0.0000     6.0000 </r>
       <r>   -17.3159     0.0000     6.0000 </r>
       <r>   -17.2348     0.0000     6.0000 </r>
       <r>   -17.1537     0.0000     6.0000 </r>
       <r>   -17.0726     0.0000     6.0000 </r>
       <r>   -16.9915     0.0000     6.0000 </r>
       <r>   -16.9104     0.0000     6.0000 </r>
       <r>   -16.8293     0.0000     6.0000 </r>
       <r>   -16.7482     0.0000     6.0000 </r>
       <r>   -16.6670     0.0000     6.0000 </r>
       <r>   -16.5859     0.0000     6.0000 </r>
       <r>   -16.5048     0.0000     6.0000 </r>
       <r>   -16.4237     0.0000     6.0000 </r>
       <r>   -16.3426     0.0000     6.0000 </r>
       <r>   -16.2615     0.0000     6.0000 </r>
       <r>   -16.1804     0.0000     6.0000 </r>
       <r>   -16.0993     0.0000     6.0000 </r>
       <r>   -16.0181     0.0000     6.0000 </r>
       <r>   -15.9370     0.0000     6.0000 </r>
       <r>   -15.8559     0.0000     6.0000 </r>
       <r>   -15.7748     0.0000     6.0000 </r>
       <r>   -15.6937     0.0000     6.0000 </r>
       <r>   -15.6126     0.0000     6.0000 </r>
       <r>   -15.5315     0.0000     6.0000 </r>
       <r>   -15.4504     0.0000     6.0000 </r>
       <r>   -15.3692     0.0000     6.0000 </r>
       <r>   -15.2881     0.0000     6.0000 </r>
       <r>   -15.2070     0.0000     6.0000 </r>
       <r>   -15.1259     0.0000     6.0000 </r>
       <r>   -15.0448     0.0000     6.0000 </r>
       <r>   -14.9637     0.0000     6.0000 </r>
       <r>   -14.8826     0.0000     6.0000 </r>
       <r>   -14.8015     0.0000     6.0000 </r>
       <r>   -14.7203     0.0006     6.0000 </r>
       <r>   -14.6392     0.9500     6.0771 </r>
       <r>   -14.5581    16.3270     7.4014 </r>
       <r>   -14.4770     7.3204     7.9952 </r>
       <r>   -14.3959     0.0612     8.0002 </r>
       <r>   -14.3148     1.7812     8.1446 </r>
       <r>   -14.2337    17.9001     9.5966 </r>
       <r>   -14.1526     4.9521     9.9983 </r>
       <r>   -14.0714     0.0216    10.0000 </r>
       <r>   -13.9903     0.0000    10.0000 </r>
       <r>   -13.9092     0.0000    10.0000 </r>
       <r>   -13.8281     0.0000    10.0000 </r>
       <r>   -13.7470     0.0000    10.0000 </r>
       <r>   -13.6659     0.0000    10.0000 </r>
       <r>   -13.5848     0.0000    10.0000 </r>
       <r>   -13.5037     0.0000    10.0000 </r>
       <r>   -13.4225     0.0000    10.0000 </r>
       <r>   -13.3414     0.0000    10.0000 </r>
       <r>   -13.2603     0.0000    10.0000 </r>
       <r>   -13.1792     0.0000    10.0000 </r>
       <r>   -13.0981     0.0000    10.0000 </r>
       <r>   -13.0170     0.0000    10.0000 </r>
       <r>   -12.9359     0.0000    10.0000 </r>
       <r>   -12.8548     0.0000    10.0000 </r>
       <r>   -12.7736     0.0000    10.0000 </r>
       <r>   -12.6925     0.0000    10.0000 </r>
       <r>   -12.6114     0.0000    10.0000 </r>
       <r>   -12.5303     0.0006    10.0000 </r>
       <r>   -12.4492     0.9461    10.0768 </r>
       <r>   -12.3681    16.3148    11.4001 </r>
       <r>   -12.2870     7.3362    11.9952 </r>
       <r>   -12.2059     0.0594    12.0000 </r>
       <r>   -12.1247     0.0000    12.0000 </r>
       <r>   -12.0436     0.0000    12.0000 </r>
       <r>   -11.9625     0.0000    12.0000 </r>
       <r>   -11.8814     0.0000    12.0000 </r>
       <r>   -11.8003     0.0000    12.0000 </r>
       <r>   -11.7192     0.0000    12.0000 </r>
       <r>   -11.6381     0.0000    12.0000 </r>
       <r>   -11.5570     0.0000    12.0000 </r>
       <r>   -11.4758     0.0000    12.0000 </r>
       <r>   -11.3947     0.0000    12.0000 </r>
       <r>   -11.3136     0.0000    12.0000 </r>
       <r>   -11.2325     0.0000    12.0000 </r>
       <r>   -11.1514     0.0000    12.0000 </r>
       <r>   -11.0703     0.0000    12.0000 </r>
       <r>   -10.9892     0.1489    12.0121 </r>
       <r>   -10.9081    10.0749    12.8293 </r>
       <r>   -10.8269    13.9691    13.9623 </r>
       <r>   -10.7458     0.4641    14.0000 </r>
       <r>   -10.6647     0.0002    14.0000 </r>
       <r>   -10.5836     0.0000    14.0000 </r>
       <r>   -10.5025     0.0064    14.0005 </r>
       <r>   -10.4214     2.9437    14.2393 </r>
       <r>   -10.3403    18.4547    15.7362 </r>
       <r>   -10.2592     3.2443    15.9994 </r>
       <r>   -10.1780     0.0080    16.0000 </r>
       <r>   -10.0969     0.0000    16.0000 </r>
       <r>   -10.0158     0.0455    16.0037 </r>
       <r>    -9.9347     6.6421    16.5424 </r>
       <r>    -9.8536    16.8356    17.9080 </r>
       <r>    -9.7725     1.1330    17.9999 </r>
       <r>    -9.6914     0.0049    18.0003 </r>
       <r>    -9.6103     2.3875    18.1940 </r>
       <r>    -9.5291    18.3256    19.6804 </r>
       <r>    -9.4480     3.9275    19.9990 </r>
       <r>    -9.3669     0.0124    20.0000 </r>
       <r>    -9.2858     0.0000    20.0000 </r>
       <r>    -9.2047     0.0000    20.0000 </r>
       <r>    -9.1236     0.0000    20.0000 </r>
       <r>    -9.0425     0.0000    20.0000 </r>
       <r>    -8.9614     0.0000    20.0000 </r>
       <r>    -8.8802     0.0000    20.0000 </r>
       <r>    -8.7991     0.0000    20.0000 </r>
       <r>    -8.7180     0.0000    20.0000 </r>
       <r>    -8.6369     0.1300    20.0105 </r>
       <r>    -8.5558     9.6401    20.7925 </r>
       <r>    -8.4747    14.3662    21.9578 </r>
       <r>    -8.3936     0.5206    22.0000 </r>
       <r>    -8.3125     0.0002    22.0000 </r>
       <r>    -8.2313     0.0000    22.0000 </r>
       <r>    -8.1502     0.0000    22.0000 </r>
       <r>    -8.0691     0.0000    22.0000 </r>
       <r>    -7.9880     0.1671    22.0136 </r>
       <r>    -7.9069    10.4530    22.8614 </r>
       <r>    -7.8258    13.6173    23.9660 </r>
       <r>    -7.7447     0.4218    24.0002 </r>
       <r>    -7.6635     1.8546    24.1506 </r>
       <r>    -7.5824    17.9732    25.6085 </r>
       <r>    -7.5013     4.8070    25.9984 </r>
       <r>    -7.4202     0.0201    26.0000 </r>
       <r>    -7.3391     0.0000    26.0000 </r>
       <r>    -7.2580     0.0000    26.0000 </r>
       <r>    -7.1769     0.0000    26.0000 </r>
       <r>    -7.0958     0.0000    26.0000 </r>
       <r>    -7.0146     0.0000    26.0000 </r>
       <r>    -6.9335     0.0000    26.0000 </r>
       <r>    -6.8524     0.0000    26.0000 </r>
       <r>    -6.7713     0.0000    26.0000 </r>
       <r>    -6.6902     0.0000    26.0000 </r>
       <r>    -6.6091     0.0000    26.0000 </r>
       <r>    -6.5280     0.0000    26.0000 </r>
       <r>    -6.4469     0.0000    26.0000 </r>
       <r>    -6.3657     0.0000    26.0000 </r>
       <r>    -6.2846     0.0000    26.0000 </r>
       <r>    -6.2035     0.0000    26.0000 </r>
       <r>    -6.1224     0.0001    26.0000 </r>
       <r>    -6.0413     0.3235    26.0262 </r>
       <r>    -5.9602    12.7091    27.0571 </r>
       <r>    -5.8791    11.5825    27.9966 </r>
       <r>    -5.7980    10.9183    28.8822 </r>
       <r>    -5.7168    13.3878    29.9681 </r>
       <r>    -5.6357     0.3928    30.0000 </r>
       <r>    -5.5546     0.0001    30.0000 </r>
       <r>    -5.4735     0.0000    30.0000 </r>
       <r>    -5.3924     0.0000    30.0000 </r>
       <r>    -5.3113     0.0000    30.0000 </r>
       <r>    -5.2302     0.0000    30.0000 </r>
       <r>    -5.1491     0.0000    30.0000 </r>
       <r>    -5.0679     0.0000    30.0000 </r>
       <r>    -4.9868     0.0000    30.0000 </r>
       <r>    -4.9057     0.0000    30.0000 </r>
       <r>    -4.8246     0.0000    30.0000 </r>
       <r>    -4.7435     0.0000    30.0000 </r>
       <r>    -4.6624     0.0000    30.0000 </r>
       <r>    -4.5813     0.0000    30.0000 </r>
       <r>    -4.5002     0.0000    30.0000 </r>
       <r>    -4.4190     0.0000    30.0000 </r>
       <r>    -4.3379     0.0000    30.0000 </r>
       <r>    -4.2568     0.0000    30.0000 </r>
       <r>    -4.1757     0.0000    30.0000 </r>
       <r>    -4.0946     0.0000    30.0000 </r>
       <r>    -4.0135     0.0000    30.0000 </r>
       <r>    -3.9324     0.0000    30.0000 </r>
       <r>    -3.8513     0.0000    30.0000 </r>
       <r>    -3.7701     0.0000    30.0000 </r>
       <r>    -3.6890     0.0000    30.0000 </r>
       <r>    -3.6079     0.0000    30.0000 </r>
       <r>    -3.5268     0.0000    30.0000 </r>
       <r>    -3.4457     0.0000    30.0000 </r>
       <r>    -3.3646     0.0000    30.0000 </r>
       <r>    -3.2835     0.0000    30.0000 </r>
       <r>    -3.2024     0.0000    30.0000 </r>
       <r>    -3.1212     0.0000    30.0000 </r>
       <r>    -3.0401     0.0000    30.0000 </r>
       <r>    -2.9590     0.0000    30.0000 </r>
       <r>    -2.8779     0.0000    30.0000 </r>
       <r>    -2.7968     0.0000    30.0000 </r>
       <r>    -2.7157     0.0000    30.0000 </r>
       <r>    -2.6346     0.0000    30.0000 </r>
       <r>    -2.5535     0.0000    30.0000 </r>
       <r>    -2.4723     0.0000    30.0000 </r>
       <r>    -2.3912     0.0000    30.0000 </r>
       <r>    -2.3101     0.0000    30.0000 </r>
       <r>    -2.2290     0.0000    30.0000 </r>
       <r>    -2.1479     0.0000    30.0000 </r>
       <r>    -2.0668     0.0000    30.0000 </r>
       <r>    -1.9857     0.0000    30.0000 </r>
       <r>    -1.9046     0.0000    30.0000 </r>
       <r>    -1.8234     0.0000    30.0000 </r>
       <r>    -1.7423     0.0000    30.0000 </r>
       <r>    -1.6612     0.0000    30.0000 </r>
       <r>    -1.5801     0.0000    30.0000 </r>
       <r>    -1.4990     0.0000    30.0000 </r>
       <r>    -1.4179     0.0000    30.0000 </r>
       <r>    -1.3368     0.0000    30.0000 </r>
       <r>    -1.2557     0.0000    30.0000 </r>
       <r>    -1.1745     0.0002    30.0000 </r>
       <r>    -1.0934     0.5369    30.0436 </r>
       <r>    -1.0123    14.4739    31.2176 </r>
       <r>    -0.9312    11.1174    32.1193 </r>
       <r>    -0.8501    17.8047    33.5635 </r>
       <r>    -0.7690     5.3549    33.9979 </r>
       <r>    -0.6879     0.0262    34.0000 </r>
       <r>    -0.6068     0.0001    34.0000 </r>
       <r>    -0.5256     0.4399    34.0357 </r>
       <r>    -0.4445    13.7833    35.1537 </r>
       <r>    -0.3634    10.2753    35.9872 </r>
       <r>    -0.2823     0.1583    36.0000 </r>
       <r>    -0.2012     0.0000    36.0000 </r>
       <r>    -0.1201     0.0000    36.0000 </r>
       <r>    -0.0390     0.0000    36.0000 </r>
       <r>     0.0421     0.0000    36.0000 </r>
       <r>     0.1233     0.0000    36.0000 </r>
       <r>     0.2044     0.0000    36.0000 </r>
       <r>     0.2855     0.0000    36.0000 </r>
       <r>     0.3666     0.0000    36.0000 </r>
       <r>     0.4477     0.0000    36.0000 </r>
       <r>     0.5288     0.0003    36.0000 </r>
       <r>     0.6099     0.6238    36.0506 </r>
       <r>     0.6910    14.9903    37.2665 </r>
       <r>     0.7722    12.8085    38.3054 </r>
       <r>     0.8533    32.4479    40.9374 </r>
       <r>     0.9344    25.2154    42.9827 </r>
       <r>     1.0155    30.4162    45.4498 </r>
       <r>     1.0966     6.7423    45.9967 </r>
       <r>     1.1777     0.0408    46.0000 </r>
       <r>     1.2588     0.0000    46.0000 </r>
       <r>     1.3399     0.0217    46.0018 </r>
       <r>     1.4211     4.9607    46.4041 </r>
       <r>     1.5022    17.8956    47.8557 </r>
       <r>     1.5833     1.7769    47.9998 </r>
       <r>     1.6644     0.0021    48.0000 </r>
       <r>     1.7455     0.0000    48.0000 </r>
       <r>     1.8266     0.0000    48.0000 </r>
       <r>     1.9077     0.0000    48.0000 </r>
       <r>     1.9888     0.0000    48.0000 </r>
       <r>     2.0700     0.0000    48.0000 </r>
       <r>     2.1511     0.0000    48.0000 </r>
       <r>     2.2322     0.0000    48.0000 </r>
       <r>     2.3133     0.0000    48.0000 </r>
       <r>     2.3944     0.0000    48.0000 </r>
       <r>     2.4755     0.0000    48.0000 </r>
       <r>     2.5566     0.0000    48.0000 </r>
      </set>
     </set>
    </array>
   </total>
  </dos>
 </calculation>
 <structure name="finalpos" >
  <crystal>
   <varray name="basis" >
    <v>      10.58354422       0.00000000       0.00000000 </v>
    <v>       0.00000000      10.58354422       0.00000000 </v>
    <v>       0.00000000       0.00000000      10.58354422 </v>
   </varray>
   <i name="volume">   1185.47769178 </i>
   <varray name="rec_basis" >
    <v>       0.09448631       0.00000000       0.00000000 </v>
    <v>       0.00000000       0.09448631       0.00000000 </v>
    <v>       0.00000000       0.00000000       0.09448631 </v>
   </varray>
  </crystal>
  <varray name="positions" >
   <v>       0.49572035       0.62853935       0.49848360 </v>
   <v>       0.38416870       0.56359335       0.49836615 </v>
   <v>       0.38919630       0.43428800       0.49431740 </v>
   <v>       0.50275825       0.36256495       0.49803855 </v>
   <v>       0.61954625       0.42897020       0.50198970 </v>
   <v>       0.61498445       0.56778230       0.50556695 </v>
   <v>       0.49105430       0.73808250       0.49813560 </v>
   <v>       0.30571700       0.63013685       0.50726695 </v>
   <v>       0.29872710       0.37899100       0.49660000 </v>
   <v>       0.49409865       0.26430395       0.50579285 </v>
   <v>       0.70194990       0.37934610       0.49776465 </v>
   <v>       0.70207890       0.62340145       0.49767755 </v>
  </varray>
 </structure>
</modeling>
