<?xml version="1.0" encoding="ISO-8859-1"?>
<modeling>
 <generator>
  <i name="program" type="string">vasp </i>
  <i name="version" type="string">6.2.0  </i>
  <i name="subversion" type="string">18Jan21 (build Mar 25 2021 14:28:09) complex                          parallel </i>
  <i name="platform" type="string">LinuxGNU </i>
  <i name="date" type="string">2021 12 20 </i>
  <i name="time" type="string">09:51:09 </i>
 </generator>
 <incar>
  <i type="string" name="SYSTEM">benzene</i>
  <i type="int" name="ISTART">     0</i>
  <i type="string" name="PREC">Accurate</i>
  <i type="string" name="ALGO">Normal</i>
  <i type="int" name="NELM">   200</i>
  <i type="int" name="IBRION">    -1</i>
  <i name="EDIFF">      0.00000100</i>
  <i type="int" name="NSW">     0</i>
  <i name="ENCUT">    600.00000000</i>
  <i type="logical" name="LREAL"> F  </i>
  <i type="int" name="ISMEAR">     0</i>
  <i name="SIGMA">      0.05000000</i>
  <i type="logical" name="LWAVE"> F  </i>
  <i type="logical" name="LCHARG"> T  </i>
  <i type="string" name="GGA">PE</i>
 </incar>
 <primitive_cell>
  <structure name="primitive_cell" >
   <crystal>
    <varray name="basis" >
     <v>      10.58354422       0.00000000       0.00000000 </v>
     <v>       0.00000000      10.58354422       0.00000000 </v>
     <v>       0.00000000       0.00000000      10.58354422 </v>
    </varray>
    <i name="volume">   1185.47769178 </i>
    <varray name="rec_basis" >
     <v>       0.09448631       0.00000000       0.00000000 </v>
     <v>       0.00000000       0.09448631       0.00000000 </v>
     <v>       0.00000000       0.00000000       0.09448631 </v>
    </varray>
   </crystal>
   <varray name="positions" >
    <v>       0.50011290       0.63130895       0.50023385 </v>
    <v>       0.38388550       0.56698210       0.49901905 </v>
    <v>       0.38881880       0.43536240       0.49162095 </v>
    <v>       0.49799235       0.36543120       0.51051945 </v>
    <v>       0.61009780       0.43091425       0.49915850 </v>
    <v>       0.61287785       0.56734575       0.49437445 </v>
    <v>       0.50531410       0.73975570       0.50619160 </v>
    <v>       0.29585765       0.62179160       0.50412690 </v>
    <v>       0.29848915       0.38419665       0.48959460 </v>
    <v>       0.50967530       0.25854005       0.51313030 </v>
    <v>       0.70200265       0.38391575       0.49126410 </v>
    <v>       0.69487600       0.61445550       0.50076630 </v>
   </varray>
  </structure>
  <varray name="primitive_index" >
   <v type="int" >        1 </v>
   <v type="int" >        2 </v>
   <v type="int" >        3 </v>
   <v type="int" >        4 </v>
   <v type="int" >        5 </v>
   <v type="int" >        6 </v>
   <v type="int" >        7 </v>
   <v type="int" >        8 </v>
   <v type="int" >        9 </v>
   <v type="int" >       10 </v>
   <v type="int" >       11 </v>
   <v type="int" >       12 </v>
  </varray>
 </primitive_cell>
 <kpoints>
  <generation param="Gamma">
   <v type="int" name="divisions">       1        1        1 </v>
   <v name="usershift">      0.00000000       0.00000000       0.00000000 </v>
   <v name="genvec1">      1.00000000       0.00000000       0.00000000 </v>
   <v name="genvec2">      0.00000000       1.00000000       0.00000000 </v>
   <v name="genvec3">      0.00000000       0.00000000       1.00000000 </v>
   <v name="shift">      0.00000000       0.00000000       0.00000000 </v>
  </generation>
  <varray name="kpointlist" >
   <v>       0.00000000       0.00000000       0.00000000 </v>
  </varray>
  <varray name="weights" >
   <v>       1.00000000 </v>
  </varray>
 </kpoints>
 <parameters>
  <separator name="general" >
   <i type="string" name="SYSTEM">benzene</i>
   <i type="logical" name="LCOMPAT"> F  </i>
  </separator>
  <separator name="electronic" >
   <i type="string" name="PREC">accura</i>
   <i name="ENMAX">    600.00000000</i>
   <i name="ENAUG">    644.87300000</i>
   <i name="EDIFF">      0.00000100</i>
   <i type="int" name="IALGO">    38</i>
   <i type="int" name="IWAVPR">    10</i>
   <i type="int" name="NBANDS">    24</i>
   <i type="int" name="NBANDSLOW">    -1</i>
   <i type="int" name="NBANDSHIGH">    -1</i>
   <i name="NELECT">     30.00000000</i>
   <i type="int" name="TURBO">     0</i>
   <i type="int" name="IRESTART">     0</i>
   <i type="int" name="NREBOOT">     0</i>
   <i type="int" name="NMIN">     0</i>
   <i name="EREF">      0.00000000</i>
   <separator name="electronic smearing" >
    <i type="int" name="ISMEAR">     0</i>
    <i name="SIGMA">      0.05000000</i>
    <i name="KSPACING">      0.50000000</i>
    <i type="logical" name="KGAMMA"> T  </i>
    <i type="logical" name="KBLOWUP"> T  </i>
   </separator>
   <separator name="electronic projectors" >
    <i type="logical" name="LREAL"> F  </i>
    <v name="ROPT">      0.00000000      0.00000000</v>
    <i type="int" name="LMAXPAW">  -100</i>
    <i type="int" name="LMAXMIX">     2</i>
    <i type="logical" name="NLSPLINE"> F  </i>
   </separator>
   <separator name="electronic startup" >
    <i type="int" name="ISTART">     0</i>
    <i type="int" name="ICHARG">     2</i>
    <i type="int" name="INIWAV">     1</i>
   </separator>
   <separator name="electronic spin" >
    <i type="int" name="ISPIN">     1</i>
    <i type="logical" name="LNONCOLLINEAR"> F  </i>
    <v name="MAGMOM">      1.00000000      1.00000000      1.00000000      1.00000000      1.00000000      1.00000000      1.00000000      1.00000000      1.00000000      1.00000000      1.00000000      1.00000000</v>
    <i name="NUPDOWN">     -1.00000000</i>
    <i type="logical" name="LSORBIT"> F  </i>
    <v name="SAXIS">      0.00000000      0.00000000      1.00000000</v>
    <i type="logical" name="LSPIRAL"> F  </i>
    <v name="QSPIRAL">      0.00000000      0.00000000      0.00000000</v>
    <i type="logical" name="LZEROZ"> F  </i>
   </separator>
   <separator name="electronic exchange-correlation" >
    <i type="logical" name="LASPH"> F  </i>
    <i type="logical" name="LMETAGGA"> F  </i>
   </separator>
   <separator name="electronic convergence" >
    <i type="int" name="NELM">   200</i>
    <i type="int" name="NELMDL">    -5</i>
    <i type="int" name="NELMIN">     2</i>
    <i name="ENINI">    600.00000000</i>
    <separator name="electronic convergence detail" >
     <i type="logical" name="LDIAG"> T  </i>
     <i type="logical" name="LSUBROT"> F  </i>
     <i name="WEIMIN">      0.00000000</i>
     <i name="EBREAK">      0.00000001</i>
     <i name="DEPER">      0.30000000</i>
     <i type="int" name="NRMM">     4</i>
     <i name="TIME">      0.40000000</i>
    </separator>
   </separator>
   <separator name="electronic mixer" >
    <i name="AMIX">      0.40000000</i>
    <i name="BMIX">      1.00000000</i>
    <i name="AMIN">      0.10000000</i>
    <i name="AMIX_MAG">      1.60000000</i>
    <i name="BMIX_MAG">      1.00000000</i>
    <separator name="electronic mixer details" >
     <i type="int" name="IMIX">     4</i>
     <i type="logical" name="MIXFIRST"> F  </i>
     <i type="int" name="MAXMIX">   -45</i>
     <i name="WC">    100.00000000</i>
     <i type="int" name="INIMIX">     1</i>
     <i type="int" name="MIXPRE">     1</i>
     <i type="int" name="MREMOVE">     5</i>
    </separator>
   </separator>
   <separator name="electronic dipolcorrection" >
    <i type="logical" name="LDIPOL"> F  </i>
    <i type="logical" name="LMONO"> F  </i>
    <i type="int" name="IDIPOL">     0</i>
    <i name="EPSILON">      1.00000000</i>
    <v name="DIPOL">   -100.00000000   -100.00000000   -100.00000000</v>
    <i name="EFIELD">      0.00000000</i>
   </separator>
  </separator>
  <separator name="grids" >
   <i type="int" name="NGX">    90</i>
   <i type="int" name="NGY">    90</i>
   <i type="int" name="NGZ">    90</i>
   <i type="int" name="NGXF">   180</i>
   <i type="int" name="NGYF">   180</i>
   <i type="int" name="NGZF">   180</i>
   <i type="logical" name="ADDGRID"> F  </i>
  </separator>
  <separator name="ionic" >
   <i type="int" name="NSW">     0</i>
   <i type="int" name="IBRION">    -1</i>
   <i type="int" name="MDALGO">     0</i>
   <i type="int" name="ISIF">     2</i>
   <i name="PSTRESS">      0.00000000</i>
   <i name="EDIFFG">      0.00001000</i>
   <i type="int" name="NFREE">     0</i>
   <i name="POTIM">      0.50000000</i>
   <i name="SMASS">     -3.00000000</i>
   <i name="SCALEE">      1.00000000</i>
  </separator>
  <separator name="ionic md" >
   <i name="TEBEG">      0.00010000</i>
   <i name="TEEND">      0.00010000</i>
   <i type="int" name="NBLOCK">     1</i>
   <i type="int" name="KBLOCK">     1</i>
   <i type="int" name="NPACO">   256</i>
   <i name="APACO">     16.00000000</i>
  </separator>
  <separator name="symmetry" >
   <i type="int" name="ISYM">     2</i>
   <i name="SYMPREC">      0.00001000</i>
  </separator>
  <separator name="dos" >
   <i type="int" name="LORBIT">     0</i>
   <v name="RWIGS">     -1.00000000     -1.00000000</v>
   <i type="int" name="NEDOS">   301</i>
   <i name="EMIN">     10.00000000</i>
   <i name="EMAX">    -10.00000000</i>
   <i name="EFERMI">      0.00000000</i>
  </separator>
  <separator name="writing" >
   <i type="int" name="NWRITE">     2</i>
   <i type="logical" name="LWAVE"> F  </i>
   <i type="logical" name="LDOWNSAMPLE"> F  </i>
   <i type="logical" name="LCHARG"> T  </i>
   <i type="logical" name="LPARD"> F  </i>
   <i type="logical" name="LVTOT"> F  </i>
   <i type="logical" name="LVHAR"> F  </i>
   <i type="logical" name="LELF"> F  </i>
   <i type="logical" name="LOPTICS"> F  </i>
   <v name="STM">      0.00000000      0.00000000      0.00000000      0.00000000      0.00000000      0.00000000      0.00000000</v>
  </separator>
  <separator name="performance" >
   <i type="int" name="NPAR">     4</i>
   <i type="int" name="NSIM">     4</i>
   <i type="int" name="NBLK">    -1</i>
   <i type="logical" name="LPLANE"> T  </i>
   <i type="logical" name="LSCALAPACK"> T  </i>
   <i type="logical" name="LSCAAWARE"> F  </i>
   <i type="logical" name="LSCALU"> F  </i>
   <i type="logical" name="LASYNC"> F  </i>
   <i type="logical" name="LORBITALREAL"> F  </i>
  </separator>
  <separator name="miscellaneous" >
   <i type="int" name="IDIOT">     3</i>
   <i type="int" name="PHON_NSTRUCT">    -1</i>
   <i type="logical" name="LMUSIC"> F  </i>
   <v name="POMASS">     12.01100000      1.00000000</v>
   <v name="DARWINR">      0.00000000      0.00000000</v>
   <v name="DARWINV">      1.00000000      1.00000000</v>
   <i type="logical" name="LCORR"> T  </i>
  </separator>
  <i type="logical" name="GGA_COMPAT"> T  </i>
  <i type="logical" name="LBERRY"> F  </i>
  <i type="int" name="ICORELEVEL">     0</i>
  <i type="logical" name="LDAU"> F  </i>
  <i type="int" name="I_CONSTRAINED_M">     0</i>
  <separator name="electronic exchange-correlation" >
   <i type="string" name="GGA">PE</i>
   <i type="int" name="VOSKOWN">     0</i>
   <i type="logical" name="LHFCALC"> F  </i>
   <i type="string" name="PRECFOCK"></i>
   <i type="logical" name="LSYMGRAD"> F  </i>
   <i type="logical" name="LHFONE"> F  </i>
   <i type="logical" name="LRHFCALC"> F  </i>
   <i type="logical" name="LTHOMAS"> F  </i>
   <i type="logical" name="LMODELHF"> F  </i>
   <i type="logical" name="LFOCKACE"> F  </i>
   <i name="ENCUT4O">     -1.00000000</i>
   <i type="int" name="EXXOEP">     0</i>
   <i type="int" name="FOURORBIT">     0</i>
   <i name="AEXX">      0.00000000</i>
   <i name="HFALPHA">      0.00000000</i>
   <i name="MCALPHA">      0.00000000</i>
   <i name="ALDAX">      1.00000000</i>
   <i name="AGGAX">      1.00000000</i>
   <i name="ALDAC">      1.00000000</i>
   <i name="AGGAC">      1.00000000</i>
   <i type="int" name="NKREDX">     1</i>
   <i type="int" name="NKREDY">     1</i>
   <i type="int" name="NKREDZ">     1</i>
   <i type="logical" name="SHIFTRED"> F  </i>
   <i type="logical" name="ODDONLY"> F  </i>
   <i type="logical" name="EVENONLY"> F  </i>
   <i type="int" name="LMAXFOCK">     0</i>
   <i type="int" name="NMAXFOCKAE">     0</i>
   <i type="logical" name="LFOCKAEDFT"> F  </i>
   <i name="HFSCREEN">      0.00000000</i>
   <i name="HFSCREENC">      0.00000000</i>
   <i type="int" name="NBANDSGWLOW">     0</i>
  </separator>
  <separator name="vdW DFT" >
   <i type="logical" name="LUSE_VDW"> F  </i>
   <i name="Zab_VDW">     -0.84910000</i>
   <i name="PARAM1">      0.12340000</i>
   <i name="PARAM2">      1.00000000</i>
   <i name="PARAM3">      0.00000000</i>
  </separator>
  <separator name="model GW" >
   <i type="int" name="MODEL_GW">     0</i>
   <i name="MODEL_EPS0">     59.27388459</i>
   <i name="MODEL_ALPHA">      1.00000000</i>
  </separator>
  <separator name="linear response parameters" >
   <i type="logical" name="LEPSILON"> F  </i>
   <i type="logical" name="LRPA"> F  </i>
   <i type="logical" name="LNABLA"> F  </i>
   <i type="logical" name="LVEL"> F  </i>
   <i type="int" name="KINTER">     0</i>
   <i name="CSHIFT">      0.10000000</i>
   <i name="OMEGAMAX">     -1.00000000</i>
   <i name="DEG_THRESHOLD">      0.00200000</i>
   <i name="RTIME">     -0.10000000</i>
   <i name="WPLASMAI">      0.00000000</i>
   <v name="DFIELD">      0.00000000      0.00000000      0.00000000</v>
   <v name="WPLASMA">      0.00000000      0.00000000      0.00000000      0.00000000      0.00000000      0.00000000      0.00000000      0.00000000      0.00000000</v>
  </separator>
  <separator name="orbital magnetization" >
   <i type="logical" name="NUCIND"> F  </i>
   <v name="MAGPOS">      0.00000000      0.00000000      0.00000000</v>
   <i type="logical" name="LNICSALL"> T  </i>
   <i type="logical" name="ORBITALMAG"> F  </i>
   <i type="logical" name="LMAGBLOCH"> F  </i>
   <i type="logical" name="LCHIMAG"> F  </i>
   <i type="logical" name="LGAUGE"> T  </i>
   <i type="int" name="MAGATOM">     0</i>
   <v name="MAGDIPOL">      0.00000000      0.00000000      0.00000000</v>
   <v name="AVECCONST">      0.00000000      0.00000000      0.00000000</v>
  </separator>
  <separator name="response functions" >
   <i type="logical" name="LFINITE_TEMPERATURE"> F  </i>
   <i type="logical" name="LADDER"> F  </i>
   <i type="logical" name="LRPAFORCE"> F  </i>
   <i type="logical" name="LFXC"> F  </i>
   <i type="logical" name="LHARTREE"> T  </i>
   <i type="int" name="IBSE">     0</i>
   <v type="int" name="KPOINT">    -1     0     0     0</v>
   <i type="logical" name="LTCTC"> F  </i>
   <i type="logical" name="LTCTE"> F  </i>
   <i type="logical" name="LTETE"> F  </i>
   <i type="logical" name="LTRIPLET"> F  </i>
   <i type="logical" name="LFXCEPS"> F  </i>
   <i type="logical" name="LFXHEG"> F  </i>
   <i type="int" name="NATURALO">     2</i>
   <i type="logical" name="LHOLEGF"> F  </i>
   <i type="logical" name="L2ORDER"> F  </i>
   <i type="logical" name="LDMP1"> F  </i>
   <i type="logical" name="LMP2LT"> F  </i>
   <i type="logical" name="LSMP2LT"> F  </i>
   <i type="logical" name="LGWLF"> F  </i>
   <i name="ENCUTGW">     -2.00000000</i>
   <i name="ENCUTGWSOFT">     -2.00000000</i>
   <i name="ENCUTLF">     -1.00000000</i>
   <i type="logical" name="LESF_SPLINES"> F  </i>
   <i type="int" name="LMAXMP2">    -1</i>
   <i name="SCISSOR">      0.00000000</i>
   <i type="int" name="NOMEGA">     0</i>
   <i type="int" name="NOMEGAR">     0</i>
   <i type="int" name="NBANDSGW">    -1</i>
   <i type="int" name="NBANDSO">    -1</i>
   <i type="int" name="NBANDSV">    -1</i>
   <i type="int" name="NELM">   200</i>
   <i type="int" name="NELMHF">     1</i>
   <i type="int" name="DIM">     3</i>
   <i type="int" name="IESPILON">     4</i>
   <i type="int" name="ANTIRES">     0</i>
   <i name="OMEGAMAX">    -30.00000000</i>
   <i name="OMEGAMIN">    -30.00000000</i>
   <i name="OMEGATL">   -200.00000000</i>
   <i type="int" name="OMEGAGRID">     0</i>
   <i name="CSHIFT">     -0.10000000</i>
   <i type="logical" name="LSELFENERGY"> F  </i>
   <i type="logical" name="LSPECTRAL"> F  </i>
   <i type="logical" name="LSPECTRALGW"> F  </i>
   <i type="logical" name="LSINGLES"> F  </i>
   <i type="logical" name="LFERMIGW"> F  </i>
   <i type="logical" name="ODDONLYGW"> F  </i>
   <i type="logical" name="EVENONLYGW"> F  </i>
   <i type="int" name="NKREDLFX">     1</i>
   <i type="int" name="NKREDLFY">     1</i>
   <i type="int" name="NKREDLFZ">     1</i>
   <i type="int" name="MAXMEM">  2800</i>
   <i type="int" name="TELESCOPE">     0</i>
   <i type="int" name="NTAUPAR">    -1</i>
   <i type="int" name="NOMEGAPAR">    -1</i>
   <i name="DAMP_NEWTON">      0.80000001</i>
   <i name="LAMBDA">      1.00000000</i>
  </separator>
  <separator name="External order field" >
   <i name="OFIELD_KAPPA">      0.00000000</i>
   <v name="OFIELD_K">      0.00000000      0.00000000      0.00000000</v>
   <i name="OFIELD_Q6_NEAR">      0.00000000</i>
   <i name="OFIELD_Q6_FAR">      0.00000000</i>
   <i name="OFIELD_A">      0.00000000</i>
  </separator>
 </parameters>
 <atominfo>
  <atoms>      12 </atoms>
  <types>       2 </types>
  <array name="atoms" >
   <dimension dim="1">ion</dimension>
   <field type="string">element</field>
   <field type="int">atomtype</field>
   <set>
    <rc><c>C </c><c>   1</c></rc>
    <rc><c>C </c><c>   1</c></rc>
    <rc><c>C </c><c>   1</c></rc>
    <rc><c>C </c><c>   1</c></rc>
    <rc><c>C </c><c>   1</c></rc>
    <rc><c>C </c><c>   1</c></rc>
    <rc><c>H </c><c>   2</c></rc>
    <rc><c>H </c><c>   2</c></rc>
    <rc><c>H </c><c>   2</c></rc>
    <rc><c>H </c><c>   2</c></rc>
    <rc><c>H </c><c>   2</c></rc>
    <rc><c>H </c><c>   2</c></rc>
   </set>
  </array>
  <array name="atomtypes" >
   <dimension dim="1">type</dimension>
   <field type="int">atomspertype</field>
   <field type="string">element</field>
   <field>mass</field>
   <field>valence</field>
   <field type="string">pseudopotential</field>
   <set>
    <rc><c>   6</c><c>C </c><c>     12.01100000</c><c>      4.00000000</c><c>  PAW_PBE C 08Apr2002                   </c></rc>
    <rc><c>   6</c><c>H </c><c>      1.00000000</c><c>      1.00000000</c><c>  PAW_PBE H 15Jun2001                   </c></rc>
   </set>
  </array>
 </atominfo>
 <structure name="initialpos" >
  <crystal>
   <varray name="basis" >
    <v>      10.58354422       0.00000000       0.00000000 </v>
    <v>       0.00000000      10.58354422       0.00000000 </v>
    <v>       0.00000000       0.00000000      10.58354422 </v>
   </varray>
   <i name="volume">   1185.47769178 </i>
   <varray name="rec_basis" >
    <v>       0.09448631       0.00000000       0.00000000 </v>
    <v>       0.00000000       0.09448631       0.00000000 </v>
    <v>       0.00000000       0.00000000       0.09448631 </v>
   </varray>
  </crystal>
  <varray name="positions" >
   <v>       0.50011290       0.63130895       0.50023385 </v>
   <v>       0.38388550       0.56698210       0.49901905 </v>
   <v>       0.38881880       0.43536240       0.49162095 </v>
   <v>       0.49799235       0.36543120       0.51051945 </v>
   <v>       0.61009780       0.43091425       0.49915850 </v>
   <v>       0.61287785       0.56734575       0.49437445 </v>
   <v>       0.50531410       0.73975570       0.50619160 </v>
   <v>       0.29585765       0.62179160       0.50412690 </v>
   <v>       0.29848915       0.38419665       0.48959460 </v>
   <v>       0.50967530       0.25854005       0.51313030 </v>
   <v>       0.70200265       0.38391575       0.49126410 </v>
   <v>       0.69487600       0.61445550       0.50076630 </v>
  </varray>
 </structure>
 <calculation>
  <scstep>
   <time name="dav">    0.21    0.21</time>
   <time name="total">    0.47    0.47</time>
   <energy>
    <i name="alphaZ">      3.48814018 </i>
    <i name="ewald">   1129.93172590 </i>
    <i name="hartreedc">  -1764.92623744 </i>
    <i name="XCdc">     91.27372186 </i>
    <i name="pawpsdc">    663.93644290 </i>
    <i name="pawaedc">   -667.40614445 </i>
    <i name="eentropy">     -0.00000000 </i>
    <i name="bandstr">   -198.81378715 </i>
    <i name="atom">    957.82965714 </i>
    <i name="e_fr_energy">    215.31351893 </i>
    <i name="e_wo_entrp">    215.31351893 </i>
    <i name="e_0_energy">    215.31351893 </i>
   </energy>
  </scstep>
  <scstep>
   <time name="dav">    0.25    0.25</time>
   <time name="total">    0.25    0.25</time>
   <energy>
    <i name="e_fr_energy">     -0.80990906 </i>
    <i name="e_wo_entrp">     -0.80990906 </i>
    <i name="e_0_energy">     -0.80990906 </i>
   </energy>
  </scstep>
  <scstep>
   <time name="dav">    0.20    0.21</time>
   <time name="total">    0.20    0.21</time>
   <energy>
    <i name="e_fr_energy">    -77.61523999 </i>
    <i name="e_wo_entrp">    -77.61523999 </i>
    <i name="e_0_energy">    -77.61523999 </i>
   </energy>
  </scstep>
  <scstep>
   <time name="dav">    0.18    0.19</time>
   <time name="total">    0.18    0.19</time>
   <energy>
    <i name="e_fr_energy">    -83.55063614 </i>
    <i name="e_wo_entrp">    -83.55063614 </i>
    <i name="e_0_energy">    -83.55063614 </i>
   </energy>
  </scstep>
  <scstep>
   <time name="dav">    0.25    0.25</time>
   <time name="total">    0.28    0.29</time>
   <energy>
    <i name="e_fr_energy">    -83.67394835 </i>
    <i name="e_wo_entrp">    -83.67394835 </i>
    <i name="e_0_energy">    -83.67394835 </i>
   </energy>
  </scstep>
  <scstep>
   <time name="dav">    0.22    0.22</time>
   <time name="total">    0.52    0.52</time>
   <energy>
    <i name="e_fr_energy">    -77.38300533 </i>
    <i name="e_wo_entrp">    -77.38300533 </i>
    <i name="e_0_energy">    -77.38300533 </i>
   </energy>
  </scstep>
  <scstep>
   <time name="dav">    0.25    0.25</time>
   <time name="total">    0.54    0.55</time>
   <energy>
    <i name="e_fr_energy">    -75.62538523 </i>
    <i name="e_wo_entrp">    -75.62538523 </i>
    <i name="e_0_energy">    -75.62538523 </i>
   </energy>
  </scstep>
  <scstep>
   <time name="dav">    0.23    0.23</time>
   <time name="total">    0.52    0.52</time>
   <energy>
    <i name="e_fr_energy">    -75.45169750 </i>
    <i name="e_wo_entrp">    -75.45169750 </i>
    <i name="e_0_energy">    -75.45169750 </i>
   </energy>
  </scstep>
  <scstep>
   <time name="dav">    0.23    0.23</time>
   <time name="total">    0.52    0.52</time>
   <energy>
    <i name="e_fr_energy">    -75.42098892 </i>
    <i name="e_wo_entrp">    -75.42098892 </i>
    <i name="e_0_energy">    -75.42098892 </i>
   </energy>
  </scstep>
  <scstep>
   <time name="dav">    0.21    0.21</time>
   <time name="total">    0.50    0.50</time>
   <energy>
    <i name="e_fr_energy">    -75.41545009 </i>
    <i name="e_wo_entrp">    -75.41545009 </i>
    <i name="e_0_energy">    -75.41545009 </i>
   </energy>
  </scstep>
  <scstep>
   <time name="dav">    0.19    0.19</time>
   <time name="total">    0.48    0.49</time>
   <energy>
    <i name="e_fr_energy">    -75.40662575 </i>
    <i name="e_wo_entrp">    -75.40662575 </i>
    <i name="e_0_energy">    -75.40662575 </i>
   </energy>
  </scstep>
  <scstep>
   <time name="dav">    0.20    0.21</time>
   <time name="total">    0.49    0.49</time>
   <energy>
    <i name="e_fr_energy">    -75.41133112 </i>
    <i name="e_wo_entrp">    -75.41133112 </i>
    <i name="e_0_energy">    -75.41133112 </i>
   </energy>
  </scstep>
  <scstep>
   <time name="dav">    0.20    0.21</time>
   <time name="total">    0.48    0.48</time>
   <energy>
    <i name="e_fr_energy">    -75.42235773 </i>
    <i name="e_wo_entrp">    -75.42235773 </i>
    <i name="e_0_energy">    -75.42235773 </i>
   </energy>
  </scstep>
  <scstep>
   <time name="dav">    0.21    0.21</time>
   <time name="total">    0.48    0.49</time>
   <energy>
    <i name="e_fr_energy">    -75.42887438 </i>
    <i name="e_wo_entrp">    -75.42887438 </i>
    <i name="e_0_energy">    -75.42887438 </i>
   </energy>
  </scstep>
  <scstep>
   <time name="dav">    0.20    0.21</time>
   <time name="total">    0.48    0.48</time>
   <energy>
    <i name="e_fr_energy">    -75.43212446 </i>
    <i name="e_wo_entrp">    -75.43212446 </i>
    <i name="e_0_energy">    -75.43212446 </i>
   </energy>
  </scstep>
  <scstep>
   <time name="dav">    0.20    0.21</time>
   <time name="total">    0.48    0.48</time>
   <energy>
    <i name="e_fr_energy">    -75.43306146 </i>
    <i name="e_wo_entrp">    -75.43306146 </i>
    <i name="e_0_energy">    -75.43306146 </i>
   </energy>
  </scstep>
  <scstep>
   <time name="dav">    0.21    0.21</time>
   <time name="total">    0.48    0.49</time>
   <energy>
    <i name="e_fr_energy">    -75.43343632 </i>
    <i name="e_wo_entrp">    -75.43343632 </i>
    <i name="e_0_energy">    -75.43343632 </i>
   </energy>
  </scstep>
  <scstep>
   <time name="dav">    0.21    0.21</time>
   <time name="total">    0.50    0.50</time>
   <energy>
    <i name="e_fr_energy">    -75.43354162 </i>
    <i name="e_wo_entrp">    -75.43354162 </i>
    <i name="e_0_energy">    -75.43354162 </i>
   </energy>
  </scstep>
  <scstep>
   <time name="dav">    0.18    0.19</time>
   <time name="total">    0.47    0.47</time>
   <energy>
    <i name="e_fr_energy">    -75.43357077 </i>
    <i name="e_wo_entrp">    -75.43357077 </i>
    <i name="e_0_energy">    -75.43357077 </i>
   </energy>
  </scstep>
  <scstep>
   <time name="dav">    0.18    0.18</time>
   <time name="total">    0.47    0.47</time>
   <energy>
    <i name="e_fr_energy">    -75.43358192 </i>
    <i name="e_wo_entrp">    -75.43358192 </i>
    <i name="e_0_energy">    -75.43358192 </i>
   </energy>
  </scstep>
  <scstep>
   <time name="dav">    0.20    0.21</time>
   <time name="total">    0.49    0.50</time>
   <energy>
    <i name="e_fr_energy">    -75.43358475 </i>
    <i name="e_wo_entrp">    -75.43358475 </i>
    <i name="e_0_energy">    -75.43358475 </i>
   </energy>
  </scstep>
  <scstep>
   <time name="dav">    0.19    0.19</time>
   <time name="total">    0.48    0.48</time>
   <energy>
    <i name="e_fr_energy">    -75.43358599 </i>
    <i name="e_wo_entrp">    -75.43358599 </i>
    <i name="e_0_energy">    -75.43358599 </i>
   </energy>
  </scstep>
  <scstep>
   <time name="dav">    0.16    0.16</time>
   <time name="total">    0.42    0.42</time>
   <energy>
    <i name="alphaZ">      3.48814018 </i>
    <i name="ewald">   1129.93172590 </i>
    <i name="hartreedc">  -1911.32053138 </i>
    <i name="XCdc">     98.13390913 </i>
    <i name="pawpsdc">   2499.59777755 </i>
    <i name="pawaedc">  -2503.85421145 </i>
    <i name="eentropy">     -0.00000000 </i>
    <i name="bandstr">   -349.24005331 </i>
    <i name="atom">    957.82965714 </i>
    <i name="e_fr_energy">    -75.43358625 </i>
    <i name="e_wo_entrp">    -75.43358625 </i>
    <i name="e_0_energy">    -75.43358625 </i>
   </energy>
  </scstep>
  <structure>
   <crystal>
    <varray name="basis" >
     <v>      10.58354422       0.00000000       0.00000000 </v>
     <v>       0.00000000      10.58354422       0.00000000 </v>
     <v>       0.00000000       0.00000000      10.58354422 </v>
    </varray>
    <i name="volume">   1185.47769178 </i>
    <varray name="rec_basis" >
     <v>       0.09448631       0.00000000       0.00000000 </v>
     <v>       0.00000000       0.09448631       0.00000000 </v>
     <v>       0.00000000       0.00000000       0.09448631 </v>
    </varray>
   </crystal>
   <varray name="positions" >
    <v>       0.50011290       0.63130895       0.50023385 </v>
    <v>       0.38388550       0.56698210       0.49901905 </v>
    <v>       0.38881880       0.43536240       0.49162095 </v>
    <v>       0.49799235       0.36543120       0.51051945 </v>
    <v>       0.61009780       0.43091425       0.49915850 </v>
    <v>       0.61287785       0.56734575       0.49437445 </v>
    <v>       0.50531410       0.73975570       0.50619160 </v>
    <v>       0.29585765       0.62179160       0.50412690 </v>
    <v>       0.29848915       0.38419665       0.48959460 </v>
    <v>       0.50967530       0.25854005       0.51313030 </v>
    <v>       0.70200265       0.38391575       0.49126410 </v>
    <v>       0.69487600       0.61445550       0.50076630 </v>
   </varray>
  </structure>
  <varray name="forces" >
   <v>      -0.49487332       2.23724192       0.17620359 </v>
   <v>       0.78477569       0.25831035      -0.32176861 </v>
   <v>      -2.11288735      -0.54217655       1.17705777 </v>
   <v>       1.20721316      -1.11829799      -1.22132512 </v>
   <v>       1.41051550       1.90639637       0.04686279 </v>
   <v>      -2.95662546      -3.71559865       0.26092369 </v>
   <v>      -0.32318607      -1.56391875      -0.07764270 </v>
   <v>       0.12458976      -0.41722766      -0.21031603 </v>
   <v>       0.08207028       0.08442890      -0.03258121 </v>
   <v>      -0.85292904       1.31035877      -0.00668131 </v>
   <v>      -0.17799023      -0.17393919       0.29997919 </v>
   <v>       3.30932710       1.73442249      -0.09071205 </v>
  </varray>
  <varray name="stress" >
   <v>       7.16620333       2.84182699       0.50790380 </v>
   <v>       2.84182699      -6.27646461       0.28859475 </v>
   <v>       0.50790380       0.28859474      -0.57171180 </v>
  </varray>
  <energy>
   <i name="e_fr_energy">    -75.43358625 </i>
   <i name="e_wo_entrp">    -75.43358625 </i>
   <i name="e_0_energy">    -75.43358625 </i>
  </energy>
  <time name="totalsc">   15.32   15.52</time>
  <eigenvalues>
   <array>
    <dimension dim="1">band</dimension>
    <dimension dim="2">kpoint</dimension>
    <dimension dim="3">spin</dimension>
    <field>eigene</field>
    <field>occ</field>
    <set>
     <set comment="spin 1">
      <set comment="kpoint 1">
       <r>  -20.8227    1.0000 </r>
       <r>  -18.1180    1.0000 </r>
       <r>  -17.9140    1.0000 </r>
       <r>  -14.5157    1.0000 </r>
       <r>  -14.2040    1.0000 </r>
       <r>  -12.4391    1.0000 </r>
       <r>  -10.7489    1.0000 </r>
       <r>  -10.4692    1.0000 </r>
       <r>   -9.7853    1.0000 </r>
       <r>   -9.7094    1.0000 </r>
       <r>   -8.6628    1.0000 </r>
       <r>   -7.8649    1.0000 </r>
       <r>   -7.5775    1.0000 </r>
       <r>   -6.0360    1.0000 </r>
       <r>   -5.7525    1.0000 </r>
       <r>   -0.9654    0.0000 </r>
       <r>   -0.8035    0.0000 </r>
       <r>   -0.4476    0.0000 </r>
       <r>    0.6964    0.0000 </r>
       <r>    0.8121    0.0000 </r>
       <r>    0.8678    0.0000 </r>
       <r>    0.8989    0.0000 </r>
       <r>    0.9834    0.0000 </r>
       <r>    1.4483    0.0000 </r>
      </set>
     </set>
    </set>
   </array>
  </eigenvalues>
  <separator name="orbital magnetization" >
   <v name="MAGDIPOLOUT">      0.00000000      0.00000000      0.00000000</v>
  </separator>
  <dos>
   <i name="efermi">     -5.51229788 </i>
   <total>
    <array>
     <dimension dim="1">gridpoints</dimension>
     <dimension dim="2">spin</dimension>
     <field>energy</field>
     <field>total</field>
     <field>integrated</field>
     <set>
      <set comment="spin 1">
       <r>   -21.9363     0.0000     0.0000 </r>
       <r>   -21.8546     0.0000     0.0000 </r>
       <r>   -21.7730     0.0000     0.0000 </r>
       <r>   -21.6913     0.0000     0.0000 </r>
       <r>   -21.6096     0.0000     0.0000 </r>
       <r>   -21.5280     0.0000     0.0000 </r>
       <r>   -21.4463     0.0000     0.0000 </r>
       <r>   -21.3647     0.0000     0.0000 </r>
       <r>   -21.2830     0.0000     0.0000 </r>
       <r>   -21.2013     0.0000     0.0000 </r>
       <r>   -21.1197     0.0000     0.0000 </r>
       <r>   -21.0380     0.0000     0.0000 </r>
       <r>   -20.9564     0.0019     0.0002 </r>
       <r>   -20.8747     1.7322     0.1416 </r>
       <r>   -20.7930    17.8473     1.5990 </r>
       <r>   -20.7114     4.8902     1.9984 </r>
       <r>   -20.6297     0.0200     2.0000 </r>
       <r>   -20.5480     0.0000     2.0000 </r>
       <r>   -20.4664     0.0000     2.0000 </r>
       <r>   -20.3847     0.0000     2.0000 </r>
       <r>   -20.3031     0.0000     2.0000 </r>
       <r>   -20.2214     0.0000     2.0000 </r>
       <r>   -20.1397     0.0000     2.0000 </r>
       <r>   -20.0581     0.0000     2.0000 </r>
       <r>   -19.9764     0.0000     2.0000 </r>
       <r>   -19.8948     0.0000     2.0000 </r>
       <r>   -19.8131     0.0000     2.0000 </r>
       <r>   -19.7314     0.0000     2.0000 </r>
       <r>   -19.6498     0.0000     2.0000 </r>
       <r>   -19.5681     0.0000     2.0000 </r>
       <r>   -19.4865     0.0000     2.0000 </r>
       <r>   -19.4048     0.0000     2.0000 </r>
       <r>   -19.3231     0.0000     2.0000 </r>
       <r>   -19.2415     0.0000     2.0000 </r>
       <r>   -19.1598     0.0000     2.0000 </r>
       <r>   -19.0782     0.0000     2.0000 </r>
       <r>   -18.9965     0.0000     2.0000 </r>
       <r>   -18.9148     0.0000     2.0000 </r>
       <r>   -18.8332     0.0000     2.0000 </r>
       <r>   -18.7515     0.0000     2.0000 </r>
       <r>   -18.6699     0.0000     2.0000 </r>
       <r>   -18.5882     0.0000     2.0000 </r>
       <r>   -18.5065     0.0000     2.0000 </r>
       <r>   -18.4249     0.0000     2.0000 </r>
       <r>   -18.3432     0.0000     2.0000 </r>
       <r>   -18.2616     0.0006     2.0000 </r>
       <r>   -18.1799     0.9801     2.0801 </r>
       <r>   -18.0982    16.4597     3.4242 </r>
       <r>   -18.0166     7.0462     3.9996 </r>
       <r>   -17.9349     6.7835     4.5535 </r>
       <r>   -17.8533    16.6608     5.9141 </r>
       <r>   -17.7716     1.0517     5.9999 </r>
       <r>   -17.6899     0.0007     6.0000 </r>
       <r>   -17.6083     0.0000     6.0000 </r>
       <r>   -17.5266     0.0000     6.0000 </r>
       <r>   -17.4449     0.0000     6.0000 </r>
       <r>   -17.3633     0.0000     6.0000 </r>
       <r>   -17.2816     0.0000     6.0000 </r>
       <r>   -17.2000     0.0000     6.0000 </r>
       <r>   -17.1183     0.0000     6.0000 </r>
       <r>   -17.0366     0.0000     6.0000 </r>
       <r>   -16.9550     0.0000     6.0000 </r>
       <r>   -16.8733     0.0000     6.0000 </r>
       <r>   -16.7917     0.0000     6.0000 </r>
       <r>   -16.7100     0.0000     6.0000 </r>
       <r>   -16.6283     0.0000     6.0000 </r>
       <r>   -16.5467     0.0000     6.0000 </r>
       <r>   -16.4650     0.0000     6.0000 </r>
       <r>   -16.3834     0.0000     6.0000 </r>
       <r>   -16.3017     0.0000     6.0000 </r>
       <r>   -16.2200     0.0000     6.0000 </r>
       <r>   -16.1384     0.0000     6.0000 </r>
       <r>   -16.0567     0.0000     6.0000 </r>
       <r>   -15.9751     0.0000     6.0000 </r>
       <r>   -15.8934     0.0000     6.0000 </r>
       <r>   -15.8117     0.0000     6.0000 </r>
       <r>   -15.7301     0.0000     6.0000 </r>
       <r>   -15.6484     0.0000     6.0000 </r>
       <r>   -15.5668     0.0000     6.0000 </r>
       <r>   -15.4851     0.0000     6.0000 </r>
       <r>   -15.4034     0.0000     6.0000 </r>
       <r>   -15.3218     0.0000     6.0000 </r>
       <r>   -15.2401     0.0000     6.0000 </r>
       <r>   -15.1585     0.0000     6.0000 </r>
       <r>   -15.0768     0.0000     6.0000 </r>
       <r>   -14.9951     0.0000     6.0000 </r>
       <r>   -14.9135     0.0000     6.0000 </r>
       <r>   -14.8318     0.0000     6.0000 </r>
       <r>   -14.7501     0.0000     6.0000 </r>
       <r>   -14.6685     0.0002     6.0000 </r>
       <r>   -14.5868     0.5431     6.0444 </r>
       <r>   -14.5052    14.5819     7.2351 </r>
       <r>   -14.4235     9.2552     7.9909 </r>
       <r>   -14.3418     0.1124     8.0001 </r>
       <r>   -14.2602     1.3733     8.1122 </r>
       <r>   -14.1785    17.3544     9.5294 </r>
       <r>   -14.0969     5.7329     9.9976 </r>
       <r>   -14.0152     0.0298    10.0000 </r>
       <r>   -13.9335     0.0000    10.0000 </r>
       <r>   -13.8519     0.0000    10.0000 </r>
       <r>   -13.7702     0.0000    10.0000 </r>
       <r>   -13.6886     0.0000    10.0000 </r>
       <r>   -13.6069     0.0000    10.0000 </r>
       <r>   -13.5252     0.0000    10.0000 </r>
       <r>   -13.4436     0.0000    10.0000 </r>
       <r>   -13.3619     0.0000    10.0000 </r>
       <r>   -13.2803     0.0000    10.0000 </r>
       <r>   -13.1986     0.0000    10.0000 </r>
       <r>   -13.1169     0.0000    10.0000 </r>
       <r>   -13.0353     0.0000    10.0000 </r>
       <r>   -12.9536     0.0000    10.0000 </r>
       <r>   -12.8720     0.0000    10.0000 </r>
       <r>   -12.7903     0.0000    10.0000 </r>
       <r>   -12.7086     0.0000    10.0000 </r>
       <r>   -12.6270     0.0000    10.0000 </r>
       <r>   -12.5453     0.0325    10.0027 </r>
       <r>   -12.4637     5.9278    10.4867 </r>
       <r>   -12.3820    17.2273    11.8935 </r>
       <r>   -12.3003     1.3030    11.9999 </r>
       <r>   -12.2187     0.0011    12.0000 </r>
       <r>   -12.1370     0.0000    12.0000 </r>
       <r>   -12.0554     0.0000    12.0000 </r>
       <r>   -11.9737     0.0000    12.0000 </r>
       <r>   -11.8920     0.0000    12.0000 </r>
       <r>   -11.8104     0.0000    12.0000 </r>
       <r>   -11.7287     0.0000    12.0000 </r>
       <r>   -11.6470     0.0000    12.0000 </r>
       <r>   -11.5654     0.0000    12.0000 </r>
       <r>   -11.4837     0.0000    12.0000 </r>
       <r>   -11.4021     0.0000    12.0000 </r>
       <r>   -11.3204     0.0000    12.0000 </r>
       <r>   -11.2387     0.0000    12.0000 </r>
       <r>   -11.1571     0.0000    12.0000 </r>
       <r>   -11.0754     0.0000    12.0000 </r>
       <r>   -10.9938     0.0000    12.0000 </r>
       <r>   -10.9121     0.0000    12.0000 </r>
       <r>   -10.8304     0.2584    12.0211 </r>
       <r>   -10.7488    12.0221    13.0028 </r>
       <r>   -10.6671    11.9575    13.9793 </r>
       <r>   -10.5855     0.2659    14.0010 </r>
       <r>   -10.5038     4.0095    14.3284 </r>
       <r>   -10.4221    18.2322    15.8173 </r>
       <r>   -10.3405     2.2343    15.9997 </r>
       <r>   -10.2588     0.0033    16.0000 </r>
       <r>   -10.1772     0.0000    16.0000 </r>
       <r>   -10.0955     0.0000    16.0000 </r>
       <r>   -10.0138     0.0000    16.0000 </r>
       <r>    -9.9322     0.0004    16.0000 </r>
       <r>    -9.8505     0.7996    16.0653 </r>
       <r>    -9.7689    16.9774    17.4517 </r>
       <r>    -9.6872    24.6537    19.4649 </r>
       <r>    -9.6055     6.5118    19.9967 </r>
       <r>    -9.5239     0.0404    20.0000 </r>
       <r>    -9.4422     0.0000    20.0000 </r>
       <r>    -9.3606     0.0000    20.0000 </r>
       <r>    -9.2789     0.0000    20.0000 </r>
       <r>    -9.1972     0.0000    20.0000 </r>
       <r>    -9.1156     0.0000    20.0000 </r>
       <r>    -9.0339     0.0000    20.0000 </r>
       <r>    -8.9522     0.0000    20.0000 </r>
       <r>    -8.8706     0.0000    20.0000 </r>
       <r>    -8.7889     0.0044    20.0004 </r>
       <r>    -8.7073     2.5478    20.2084 </r>
       <r>    -8.6256    18.3526    21.7071 </r>
       <r>    -8.5439     3.5773    21.9992 </r>
       <r>    -8.4623     0.0095    22.0000 </r>
       <r>    -8.3806     0.0000    22.0000 </r>
       <r>    -8.2990     0.0000    22.0000 </r>
       <r>    -8.2173     0.0000    22.0000 </r>
       <r>    -8.1356     0.0000    22.0000 </r>
       <r>    -8.0540     0.0000    22.0000 </r>
       <r>    -7.9723     0.0290    22.0024 </r>
       <r>    -7.8907     5.6724    22.4656 </r>
       <r>    -7.8090    17.3929    23.8859 </r>
       <r>    -7.7273     1.3963    23.9999 </r>
       <r>    -7.6457     0.6592    24.0537 </r>
       <r>    -7.5640    15.2208    25.2967 </r>
       <r>    -7.4824     8.5253    25.9929 </r>
       <r>    -7.4007     0.0873    26.0000 </r>
       <r>    -7.3190     0.0000    26.0000 </r>
       <r>    -7.2374     0.0000    26.0000 </r>
       <r>    -7.1557     0.0000    26.0000 </r>
       <r>    -7.0741     0.0000    26.0000 </r>
       <r>    -6.9924     0.0000    26.0000 </r>
       <r>    -6.9107     0.0000    26.0000 </r>
       <r>    -6.8291     0.0000    26.0000 </r>
       <r>    -6.7474     0.0000    26.0000 </r>
       <r>    -6.6658     0.0000    26.0000 </r>
       <r>    -6.5841     0.0000    26.0000 </r>
       <r>    -6.5024     0.0000    26.0000 </r>
       <r>    -6.4208     0.0000    26.0000 </r>
       <r>    -6.3391     0.0000    26.0000 </r>
       <r>    -6.2575     0.0000    26.0000 </r>
       <r>    -6.1758     0.0009    26.0001 </r>
       <r>    -6.0941     1.2224    26.0999 </r>
       <r>    -6.0125    17.0663    27.4935 </r>
       <r>    -5.9308     6.1660    27.9971 </r>
       <r>    -5.8491     0.1125    28.0062 </r>
       <r>    -5.7675     8.1397    28.6709 </r>
       <r>    -5.6858    15.5474    29.9406 </r>
       <r>    -5.6042     0.7277    30.0000 </r>
       <r>    -5.5225     0.0003    30.0000 </r>
       <r>    -5.4408     0.0000    30.0000 </r>
       <r>    -5.3592     0.0000    30.0000 </r>
       <r>    -5.2775     0.0000    30.0000 </r>
       <r>    -5.1959     0.0000    30.0000 </r>
       <r>    -5.1142     0.0000    30.0000 </r>
       <r>    -5.0325     0.0000    30.0000 </r>
       <r>    -4.9509     0.0000    30.0000 </r>
       <r>    -4.8692     0.0000    30.0000 </r>
       <r>    -4.7876     0.0000    30.0000 </r>
       <r>    -4.7059     0.0000    30.0000 </r>
       <r>    -4.6242     0.0000    30.0000 </r>
       <r>    -4.5426     0.0000    30.0000 </r>
       <r>    -4.4609     0.0000    30.0000 </r>
       <r>    -4.3793     0.0000    30.0000 </r>
       <r>    -4.2976     0.0000    30.0000 </r>
       <r>    -4.2159     0.0000    30.0000 </r>
       <r>    -4.1343     0.0000    30.0000 </r>
       <r>    -4.0526     0.0000    30.0000 </r>
       <r>    -3.9710     0.0000    30.0000 </r>
       <r>    -3.8893     0.0000    30.0000 </r>
       <r>    -3.8076     0.0000    30.0000 </r>
       <r>    -3.7260     0.0000    30.0000 </r>
       <r>    -3.6443     0.0000    30.0000 </r>
       <r>    -3.5627     0.0000    30.0000 </r>
       <r>    -3.4810     0.0000    30.0000 </r>
       <r>    -3.3993     0.0000    30.0000 </r>
       <r>    -3.3177     0.0000    30.0000 </r>
       <r>    -3.2360     0.0000    30.0000 </r>
       <r>    -3.1543     0.0000    30.0000 </r>
       <r>    -3.0727     0.0000    30.0000 </r>
       <r>    -2.9910     0.0000    30.0000 </r>
       <r>    -2.9094     0.0000    30.0000 </r>
       <r>    -2.8277     0.0000    30.0000 </r>
       <r>    -2.7460     0.0000    30.0000 </r>
       <r>    -2.6644     0.0000    30.0000 </r>
       <r>    -2.5827     0.0000    30.0000 </r>
       <r>    -2.5011     0.0000    30.0000 </r>
       <r>    -2.4194     0.0000    30.0000 </r>
       <r>    -2.3377     0.0000    30.0000 </r>
       <r>    -2.2561     0.0000    30.0000 </r>
       <r>    -2.1744     0.0000    30.0000 </r>
       <r>    -2.0928     0.0000    30.0000 </r>
       <r>    -2.0111     0.0000    30.0000 </r>
       <r>    -1.9294     0.0000    30.0000 </r>
       <r>    -1.8478     0.0000    30.0000 </r>
       <r>    -1.7661     0.0000    30.0000 </r>
       <r>    -1.6845     0.0000    30.0000 </r>
       <r>    -1.6028     0.0000    30.0000 </r>
       <r>    -1.5211     0.0000    30.0000 </r>
       <r>    -1.4395     0.0000    30.0000 </r>
       <r>    -1.3578     0.0000    30.0000 </r>
       <r>    -1.2762     0.0000    30.0000 </r>
       <r>    -1.1945     0.0000    30.0000 </r>
       <r>    -1.1128     0.0004    30.0000 </r>
       <r>    -1.0312     0.7712    30.0630 </r>
       <r>    -0.9495    15.7326    31.3477 </r>
       <r>    -0.8679     8.7584    32.0630 </r>
       <r>    -0.7862    16.0734    33.3755 </r>
       <r>    -0.7045     7.5846    33.9949 </r>
       <r>    -0.6229     0.0627    34.0000 </r>
       <r>    -0.5412     0.0991    34.0081 </r>
       <r>    -0.4596     8.9021    34.7350 </r>
       <r>    -0.3779    14.8942    35.9513 </r>
       <r>    -0.2962     0.5960    36.0000 </r>
       <r>    -0.2146     0.0002    36.0000 </r>
       <r>    -0.1329     0.0000    36.0000 </r>
       <r>    -0.0512     0.0000    36.0000 </r>
       <r>     0.0304     0.0000    36.0000 </r>
       <r>     0.1121     0.0000    36.0000 </r>
       <r>     0.1937     0.0000    36.0000 </r>
       <r>     0.2754     0.0000    36.0000 </r>
       <r>     0.3571     0.0000    36.0000 </r>
       <r>     0.4387     0.0000    36.0000 </r>
       <r>     0.5204     0.0000    36.0000 </r>
       <r>     0.6020     0.0931    36.0076 </r>
       <r>     0.6837     8.7195    36.7196 </r>
       <r>     0.7654    17.3788    38.1388 </r>
       <r>     0.8470    27.3955    40.3759 </r>
       <r>     0.9287    39.9138    43.6353 </r>
       <r>     1.0103    23.4679    45.5517 </r>
       <r>     1.0920     5.4633    45.9979 </r>
       <r>     1.1737     0.0261    46.0000 </r>
       <r>     1.2553     0.0000    46.0000 </r>
       <r>     1.3370     0.0200    46.0016 </r>
       <r>     1.4186     4.8902    46.4010 </r>
       <r>     1.5003    17.8473    47.8584 </r>
       <r>     1.5820     1.7322    47.9998 </r>
       <r>     1.6636     0.0019    48.0000 </r>
       <r>     1.7453     0.0000    48.0000 </r>
       <r>     1.8269     0.0000    48.0000 </r>
       <r>     1.9086     0.0000    48.0000 </r>
       <r>     1.9903     0.0000    48.0000 </r>
       <r>     2.0719     0.0000    48.0000 </r>
       <r>     2.1536     0.0000    48.0000 </r>
       <r>     2.2352     0.0000    48.0000 </r>
       <r>     2.3169     0.0000    48.0000 </r>
       <r>     2.3986     0.0000    48.0000 </r>
       <r>     2.4802     0.0000    48.0000 </r>
       <r>     2.5619     0.0000    48.0000 </r>
      </set>
     </set>
    </array>
   </total>
  </dos>
 </calculation>
 <structure name="finalpos" >
  <crystal>
   <varray name="basis" >
    <v>      10.58354422       0.00000000       0.00000000 </v>
    <v>       0.00000000      10.58354422       0.00000000 </v>
    <v>       0.00000000       0.00000000      10.58354422 </v>
   </varray>
   <i name="volume">   1185.47769178 </i>
   <varray name="rec_basis" >
    <v>       0.09448631       0.00000000       0.00000000 </v>
    <v>       0.00000000       0.09448631       0.00000000 </v>
    <v>       0.00000000       0.00000000       0.09448631 </v>
   </varray>
  </crystal>
  <varray name="positions" >
   <v>       0.50011290       0.63130895       0.50023385 </v>
   <v>       0.38388550       0.56698210       0.49901905 </v>
   <v>       0.38881880       0.43536240       0.49162095 </v>
   <v>       0.49799235       0.36543120       0.51051945 </v>
   <v>       0.61009780       0.43091425       0.49915850 </v>
   <v>       0.61287785       0.56734575       0.49437445 </v>
   <v>       0.50531410       0.73975570       0.50619160 </v>
   <v>       0.29585765       0.62179160       0.50412690 </v>
   <v>       0.29848915       0.38419665       0.48959460 </v>
   <v>       0.50967530       0.25854005       0.51313030 </v>
   <v>       0.70200265       0.38391575       0.49126410 </v>
   <v>       0.69487600       0.61445550       0.50076630 </v>
  </varray>
 </structure>
</modeling>
