<?xml version="1.0" encoding="ISO-8859-1"?>
<modeling>
 <generator>
  <i name="program" type="string">vasp </i>
  <i name="version" type="string">6.2.0  </i>
  <i name="subversion" type="string">18Jan21 (build Mar 25 2021 14:28:09) complex                          parallel </i>
  <i name="platform" type="string">LinuxGNU </i>
  <i name="date" type="string">2022 08 19 </i>
  <i name="time" type="string">11:09:23 </i>
 </generator>
 <incar>
  <i type="string" name="SYSTEM">al</i>
  <i type="int" name="ISTART">     0</i>
  <i type="string" name="PREC">Accurate</i>
  <i type="string" name="ALGO">Normal</i>
  <i type="int" name="NSIM">     8</i>
  <i type="int" name="NELM">   200</i>
  <i type="int" name="IBRION">    -1</i>
  <i name="EDIFF">      0.00000100</i>
  <i type="int" name="NSW">     0</i>
  <i name="ENCUT">    600.00000000</i>
  <i type="string" name="LREAL">Auto</i>
  <i type="int" name="ISMEAR">     0</i>
  <i name="SIGMA">      0.05000000</i>
  <i type="int" name="LMAXPAW">    -1</i>
  <i type="logical" name="LWAVE"> F  </i>
  <i type="logical" name="LCHARG"> T  </i>
  <i type="string" name="GGA">PE</i>
 </incar>
 <primitive_cell>
  <structure name="primitive_cell" >
   <crystal>
    <varray name="basis" >
     <v>       8.07809510       0.00000000       0.00000000 </v>
     <v>       0.00000000       8.07809510       0.00000000 </v>
     <v>       0.00000000       0.00000000       8.07809510 </v>
    </varray>
    <i name="volume">    527.14110776 </i>
    <varray name="rec_basis" >
     <v>       0.12379156       0.00000000       0.00000000 </v>
     <v>       0.00000000       0.12379156       0.00000000 </v>
     <v>       0.00000000       0.00000000       0.12379156 </v>
    </varray>
   </crystal>
   <varray name="positions" >
    <v>       0.99765019       0.97923285       0.00685472 </v>
    <v>       0.00801125       0.27231414       0.24612037 </v>
    <v>       0.23666827       0.00354353       0.24676044 </v>
    <v>       0.23450507       0.24347116       0.99290820 </v>
    <v>       0.99949834       0.99790840       0.50874701 </v>
    <v>       0.00047543       0.23542294       0.76405309 </v>
    <v>       0.24715283       0.98929324       0.73521507 </v>
    <v>       0.25767234       0.23262121       0.49145450 </v>
    <v>       0.99572951       0.52330238       0.98787088 </v>
    <v>       0.99885652       0.75105918       0.24285980 </v>
    <v>       0.25490350       0.52002943       0.23472961 </v>
    <v>       0.26612279       0.74704601       0.98505751 </v>
    <v>       0.00326913       0.50784342       0.50059532 </v>
    <v>       0.00506060       0.75088248       0.76310674 </v>
    <v>       0.23499134       0.49272835       0.75249110 </v>
    <v>       0.25226438       0.75086550       0.47943464 </v>
    <v>       0.49032360       0.02067436       0.98924027 </v>
    <v>       0.49205350       0.25349914       0.25193339 </v>
    <v>       0.75634601       0.98470287       0.24115949 </v>
    <v>       0.75666360       0.24113260       0.00532538 </v>
    <v>       0.50480294       0.98561484       0.50740545 </v>
    <v>       0.49708019       0.25595026       0.73696125 </v>
    <v>       0.74054065       0.01686135       0.75568510 </v>
    <v>       0.75698444       0.25544679       0.50269806 </v>
    <v>       0.50645806       0.48160520       0.99499473 </v>
    <v>       0.50322618       0.74057095       0.25178967 </v>
    <v>       0.75209660       0.48125973       0.23197751 </v>
    <v>       0.72313731       0.75447777       0.00005983 </v>
    <v>       0.51163081       0.50924259       0.49852577 </v>
    <v>       0.49507667       0.74093482       0.74852432 </v>
    <v>       0.75530233       0.50481877       0.75474169 </v>
    <v>       0.75606169       0.74301582       0.50012104 </v>
   </varray>
  </structure>
  <varray name="primitive_index" >
   <v type="int" >        1 </v>
   <v type="int" >        2 </v>
   <v type="int" >        3 </v>
   <v type="int" >        4 </v>
   <v type="int" >        5 </v>
   <v type="int" >        6 </v>
   <v type="int" >        7 </v>
   <v type="int" >        8 </v>
   <v type="int" >        9 </v>
   <v type="int" >       10 </v>
   <v type="int" >       11 </v>
   <v type="int" >       12 </v>
   <v type="int" >       13 </v>
   <v type="int" >       14 </v>
   <v type="int" >       15 </v>
   <v type="int" >       16 </v>
   <v type="int" >       17 </v>
   <v type="int" >       18 </v>
   <v type="int" >       19 </v>
   <v type="int" >       20 </v>
   <v type="int" >       21 </v>
   <v type="int" >       22 </v>
   <v type="int" >       23 </v>
   <v type="int" >       24 </v>
   <v type="int" >       25 </v>
   <v type="int" >       26 </v>
   <v type="int" >       27 </v>
   <v type="int" >       28 </v>
   <v type="int" >       29 </v>
   <v type="int" >       30 </v>
   <v type="int" >       31 </v>
   <v type="int" >       32 </v>
  </varray>
 </primitive_cell>
 <kpoints>
  <generation param="Gamma">
   <v type="int" name="divisions">       9        9        9 </v>
   <v name="usershift">      0.00000000       0.00000000       0.00000000 </v>
   <v name="genvec1">      0.11111111       0.00000000       0.00000000 </v>
   <v name="genvec2">      0.00000000       0.11111111       0.00000000 </v>
   <v name="genvec3">      0.00000000       0.00000000       0.11111111 </v>
   <v name="shift">      0.00000000       0.00000000       0.00000000 </v>
  </generation>
  <varray name="kpointlist" >
   <v>       0.00000000       0.00000000       0.00000000 </v>
   <v>       0.11111111       0.00000000       0.00000000 </v>
   <v>       0.00000000       0.11111111       0.00000000 </v>
   <v>       0.00000000       0.00000000       0.11111111 </v>
   <v>       0.22222222       0.00000000       0.00000000 </v>
   <v>       0.00000000       0.22222222       0.00000000 </v>
   <v>       0.00000000       0.00000000       0.22222222 </v>
   <v>       0.33333333       0.00000000       0.00000000 </v>
   <v>       0.00000000       0.33333333       0.00000000 </v>
   <v>       0.00000000       0.00000000       0.33333333 </v>
   <v>       0.44444444       0.00000000       0.00000000 </v>
   <v>       0.00000000       0.44444444       0.00000000 </v>
   <v>       0.00000000       0.00000000       0.44444444 </v>
   <v>       0.11111111       0.11111111       0.00000000 </v>
   <v>       0.00000000       0.11111111       0.11111111 </v>
   <v>       0.11111111       0.00000000       0.11111111 </v>
   <v>      -0.11111111       0.11111111       0.00000000 </v>
   <v>      -0.11111111       0.00000000       0.11111111 </v>
   <v>       0.00000000      -0.11111111       0.11111111 </v>
   <v>       0.22222222       0.11111111       0.00000000 </v>
   <v>       0.00000000       0.22222222       0.11111111 </v>
   <v>       0.11111111       0.00000000       0.22222222 </v>
   <v>      -0.11111111       0.22222222       0.00000000 </v>
   <v>      -0.22222222       0.00000000       0.11111111 </v>
   <v>       0.00000000       0.11111111       0.22222222 </v>
   <v>       0.00000000      -0.22222222       0.11111111 </v>
   <v>      -0.11111111       0.00000000       0.22222222 </v>
   <v>       0.22222222       0.00000000       0.11111111 </v>
   <v>       0.00000000      -0.11111111       0.22222222 </v>
   <v>       0.22222222      -0.11111111       0.00000000 </v>
   <v>       0.11111111       0.22222222       0.00000000 </v>
   <v>       0.33333333       0.11111111       0.00000000 </v>
   <v>       0.00000000       0.33333333       0.11111111 </v>
   <v>       0.11111111       0.00000000       0.33333333 </v>
   <v>      -0.11111111       0.33333333       0.00000000 </v>
   <v>      -0.33333333       0.00000000       0.11111111 </v>
   <v>       0.00000000       0.11111111       0.33333333 </v>
   <v>       0.00000000      -0.33333333       0.11111111 </v>
   <v>      -0.11111111       0.00000000       0.33333333 </v>
   <v>       0.33333333       0.00000000       0.11111111 </v>
   <v>       0.00000000      -0.11111111       0.33333333 </v>
   <v>       0.33333333      -0.11111111       0.00000000 </v>
   <v>       0.11111111       0.33333333       0.00000000 </v>
   <v>       0.44444444       0.11111111       0.00000000 </v>
   <v>       0.00000000       0.44444444       0.11111111 </v>
   <v>       0.11111111       0.00000000       0.44444444 </v>
   <v>      -0.11111111       0.44444444       0.00000000 </v>
   <v>      -0.44444444       0.00000000       0.11111111 </v>
   <v>       0.00000000       0.11111111       0.44444444 </v>
   <v>       0.00000000      -0.44444444       0.11111111 </v>
   <v>      -0.11111111       0.00000000       0.44444444 </v>
   <v>       0.44444444       0.00000000       0.11111111 </v>
   <v>       0.00000000      -0.11111111       0.44444444 </v>
   <v>       0.44444444      -0.11111111       0.00000000 </v>
   <v>       0.11111111       0.44444444       0.00000000 </v>
   <v>       0.22222222       0.22222222       0.00000000 </v>
   <v>       0.00000000       0.22222222       0.22222222 </v>
   <v>       0.22222222       0.00000000       0.22222222 </v>
   <v>      -0.22222222       0.22222222       0.00000000 </v>
   <v>      -0.22222222       0.00000000       0.22222222 </v>
   <v>       0.00000000      -0.22222222       0.22222222 </v>
   <v>       0.33333333       0.22222222       0.00000000 </v>
   <v>       0.00000000       0.33333333       0.22222222 </v>
   <v>       0.22222222       0.00000000       0.33333333 </v>
   <v>      -0.22222222       0.33333333       0.00000000 </v>
   <v>      -0.33333333       0.00000000       0.22222222 </v>
   <v>       0.00000000       0.22222222       0.33333333 </v>
   <v>       0.00000000      -0.33333333       0.22222222 </v>
   <v>      -0.22222222       0.00000000       0.33333333 </v>
   <v>       0.33333333       0.00000000       0.22222222 </v>
   <v>       0.00000000      -0.22222222       0.33333333 </v>
   <v>       0.33333333      -0.22222222       0.00000000 </v>
   <v>       0.22222222       0.33333333       0.00000000 </v>
   <v>       0.44444444       0.22222222       0.00000000 </v>
   <v>       0.00000000       0.44444444       0.22222222 </v>
   <v>       0.22222222       0.00000000       0.44444444 </v>
   <v>      -0.22222222       0.44444444       0.00000000 </v>
   <v>      -0.44444444       0.00000000       0.22222222 </v>
   <v>       0.00000000       0.22222222       0.44444444 </v>
   <v>       0.00000000      -0.44444444       0.22222222 </v>
   <v>      -0.22222222       0.00000000       0.44444444 </v>
   <v>       0.44444444       0.00000000       0.22222222 </v>
   <v>       0.00000000      -0.22222222       0.44444444 </v>
   <v>       0.44444444      -0.22222222       0.00000000 </v>
   <v>       0.22222222       0.44444444       0.00000000 </v>
   <v>       0.33333333       0.33333333       0.00000000 </v>
   <v>       0.00000000       0.33333333       0.33333333 </v>
   <v>       0.33333333       0.00000000       0.33333333 </v>
   <v>      -0.33333333       0.33333333       0.00000000 </v>
   <v>      -0.33333333       0.00000000       0.33333333 </v>
   <v>       0.00000000      -0.33333333       0.33333333 </v>
   <v>       0.44444444       0.33333333       0.00000000 </v>
   <v>       0.00000000       0.44444444       0.33333333 </v>
   <v>       0.33333333       0.00000000       0.44444444 </v>
   <v>      -0.33333333       0.44444444       0.00000000 </v>
   <v>      -0.44444444       0.00000000       0.33333333 </v>
   <v>       0.00000000       0.33333333       0.44444444 </v>
   <v>       0.00000000      -0.44444444       0.33333333 </v>
   <v>      -0.33333333       0.00000000       0.44444444 </v>
   <v>       0.44444444       0.00000000       0.33333333 </v>
   <v>       0.00000000      -0.33333333       0.44444444 </v>
   <v>       0.44444444      -0.33333333       0.00000000 </v>
   <v>       0.33333333       0.44444444       0.00000000 </v>
   <v>       0.44444444       0.44444444       0.00000000 </v>
   <v>       0.00000000       0.44444444       0.44444444 </v>
   <v>       0.44444444       0.00000000       0.44444444 </v>
   <v>      -0.44444444       0.44444444       0.00000000 </v>
   <v>      -0.44444444       0.00000000       0.44444444 </v>
   <v>       0.00000000      -0.44444444       0.44444444 </v>
   <v>       0.11111111       0.11111111       0.11111111 </v>
   <v>      -0.11111111       0.11111111       0.11111111 </v>
   <v>      -0.11111111      -0.11111111       0.11111111 </v>
   <v>       0.11111111      -0.11111111       0.11111111 </v>
   <v>       0.22222222       0.11111111       0.11111111 </v>
   <v>       0.11111111       0.22222222       0.11111111 </v>
   <v>       0.11111111       0.11111111       0.22222222 </v>
   <v>      -0.11111111       0.22222222       0.11111111 </v>
   <v>      -0.22222222       0.11111111       0.11111111 </v>
   <v>      -0.11111111       0.11111111       0.22222222 </v>
   <v>      -0.22222222      -0.11111111       0.11111111 </v>
   <v>      -0.11111111      -0.22222222       0.11111111 </v>
   <v>      -0.11111111      -0.11111111       0.22222222 </v>
   <v>       0.11111111      -0.22222222       0.11111111 </v>
   <v>       0.22222222      -0.11111111       0.11111111 </v>
   <v>       0.11111111      -0.11111111       0.22222222 </v>
   <v>       0.33333333       0.11111111       0.11111111 </v>
   <v>       0.11111111       0.33333333       0.11111111 </v>
   <v>       0.11111111       0.11111111       0.33333333 </v>
   <v>      -0.11111111       0.33333333       0.11111111 </v>
   <v>      -0.33333333       0.11111111       0.11111111 </v>
   <v>      -0.11111111       0.11111111       0.33333333 </v>
   <v>      -0.33333333      -0.11111111       0.11111111 </v>
   <v>      -0.11111111      -0.33333333       0.11111111 </v>
   <v>      -0.11111111      -0.11111111       0.33333333 </v>
   <v>       0.11111111      -0.33333333       0.11111111 </v>
   <v>       0.33333333      -0.11111111       0.11111111 </v>
   <v>       0.11111111      -0.11111111       0.33333333 </v>
   <v>       0.44444444       0.11111111       0.11111111 </v>
   <v>       0.11111111       0.44444444       0.11111111 </v>
   <v>       0.11111111       0.11111111       0.44444444 </v>
   <v>      -0.11111111       0.44444444       0.11111111 </v>
   <v>      -0.44444444       0.11111111       0.11111111 </v>
   <v>      -0.11111111       0.11111111       0.44444444 </v>
   <v>      -0.44444444      -0.11111111       0.11111111 </v>
   <v>      -0.11111111      -0.44444444       0.11111111 </v>
   <v>      -0.11111111      -0.11111111       0.44444444 </v>
   <v>       0.11111111      -0.44444444       0.11111111 </v>
   <v>       0.44444444      -0.11111111       0.11111111 </v>
   <v>       0.11111111      -0.11111111       0.44444444 </v>
   <v>       0.22222222       0.22222222       0.11111111 </v>
   <v>       0.11111111       0.22222222       0.22222222 </v>
   <v>       0.22222222       0.11111111       0.22222222 </v>
   <v>      -0.22222222       0.22222222       0.11111111 </v>
   <v>      -0.22222222       0.11111111       0.22222222 </v>
   <v>      -0.11111111       0.22222222       0.22222222 </v>
   <v>      -0.22222222      -0.22222222       0.11111111 </v>
   <v>      -0.11111111      -0.22222222       0.22222222 </v>
   <v>      -0.22222222      -0.11111111       0.22222222 </v>
   <v>       0.22222222      -0.22222222       0.11111111 </v>
   <v>       0.22222222      -0.11111111       0.22222222 </v>
   <v>       0.11111111      -0.22222222       0.22222222 </v>
   <v>       0.33333333       0.22222222       0.11111111 </v>
   <v>       0.11111111       0.33333333       0.22222222 </v>
   <v>       0.22222222       0.11111111       0.33333333 </v>
   <v>      -0.22222222       0.33333333       0.11111111 </v>
   <v>      -0.33333333       0.11111111       0.22222222 </v>
   <v>      -0.11111111       0.22222222       0.33333333 </v>
   <v>      -0.33333333      -0.22222222       0.11111111 </v>
   <v>      -0.11111111      -0.33333333       0.22222222 </v>
   <v>      -0.22222222      -0.11111111       0.33333333 </v>
   <v>       0.22222222      -0.33333333       0.11111111 </v>
   <v>       0.33333333      -0.11111111       0.22222222 </v>
   <v>       0.11111111      -0.22222222       0.33333333 </v>
   <v>       0.11111111      -0.33333333      -0.22222222 </v>
   <v>       0.22222222      -0.11111111      -0.33333333 </v>
   <v>       0.33333333      -0.22222222      -0.11111111 </v>
   <v>       0.11111111       0.22222222      -0.33333333 </v>
   <v>       0.22222222       0.33333333      -0.11111111 </v>
   <v>       0.33333333       0.11111111      -0.22222222 </v>
   <v>      -0.22222222       0.11111111      -0.33333333 </v>
   <v>      -0.33333333       0.22222222      -0.11111111 </v>
   <v>      -0.11111111       0.33333333      -0.22222222 </v>
   <v>      -0.33333333      -0.11111111      -0.22222222 </v>
   <v>      -0.22222222      -0.33333333      -0.11111111 </v>
   <v>      -0.11111111      -0.22222222      -0.33333333 </v>
   <v>       0.44444444       0.22222222       0.11111111 </v>
   <v>       0.11111111       0.44444444       0.22222222 </v>
   <v>       0.22222222       0.11111111       0.44444444 </v>
   <v>      -0.22222222       0.44444444       0.11111111 </v>
   <v>      -0.44444444       0.11111111       0.22222222 </v>
   <v>      -0.11111111       0.22222222       0.44444444 </v>
   <v>      -0.44444444      -0.22222222       0.11111111 </v>
   <v>      -0.11111111      -0.44444444       0.22222222 </v>
   <v>      -0.22222222      -0.11111111       0.44444444 </v>
   <v>       0.22222222      -0.44444444       0.11111111 </v>
   <v>       0.44444444      -0.11111111       0.22222222 </v>
   <v>       0.11111111      -0.22222222       0.44444444 </v>
   <v>       0.11111111      -0.44444444      -0.22222222 </v>
   <v>       0.22222222      -0.11111111      -0.44444444 </v>
   <v>       0.44444444      -0.22222222      -0.11111111 </v>
   <v>       0.11111111       0.22222222      -0.44444444 </v>
   <v>       0.22222222       0.44444444      -0.11111111 </v>
   <v>       0.44444444       0.11111111      -0.22222222 </v>
   <v>      -0.22222222       0.11111111      -0.44444444 </v>
   <v>      -0.44444444       0.22222222      -0.11111111 </v>
   <v>      -0.11111111       0.44444444      -0.22222222 </v>
   <v>      -0.44444444      -0.11111111      -0.22222222 </v>
   <v>      -0.22222222      -0.44444444      -0.11111111 </v>
   <v>      -0.11111111      -0.22222222      -0.44444444 </v>
   <v>       0.33333333       0.33333333       0.11111111 </v>
   <v>       0.11111111       0.33333333       0.33333333 </v>
   <v>       0.33333333       0.11111111       0.33333333 </v>
   <v>      -0.33333333       0.33333333       0.11111111 </v>
   <v>      -0.33333333       0.11111111       0.33333333 </v>
   <v>      -0.11111111       0.33333333       0.33333333 </v>
   <v>      -0.33333333      -0.33333333       0.11111111 </v>
   <v>      -0.11111111      -0.33333333       0.33333333 </v>
   <v>      -0.33333333      -0.11111111       0.33333333 </v>
   <v>       0.33333333      -0.33333333       0.11111111 </v>
   <v>       0.33333333      -0.11111111       0.33333333 </v>
   <v>       0.11111111      -0.33333333       0.33333333 </v>
   <v>       0.44444444       0.33333333       0.11111111 </v>
   <v>       0.11111111       0.44444444       0.33333333 </v>
   <v>       0.33333333       0.11111111       0.44444444 </v>
   <v>      -0.33333333       0.44444444       0.11111111 </v>
   <v>      -0.44444444       0.11111111       0.33333333 </v>
   <v>      -0.11111111       0.33333333       0.44444444 </v>
   <v>      -0.44444444      -0.33333333       0.11111111 </v>
   <v>      -0.11111111      -0.44444444       0.33333333 </v>
   <v>      -0.33333333      -0.11111111       0.44444444 </v>
   <v>       0.33333333      -0.44444444       0.11111111 </v>
   <v>       0.44444444      -0.11111111       0.33333333 </v>
   <v>       0.11111111      -0.33333333       0.44444444 </v>
   <v>       0.11111111      -0.44444444      -0.33333333 </v>
   <v>       0.33333333      -0.11111111      -0.44444444 </v>
   <v>       0.44444444      -0.33333333      -0.11111111 </v>
   <v>       0.11111111       0.33333333      -0.44444444 </v>
   <v>       0.33333333       0.44444444      -0.11111111 </v>
   <v>       0.44444444       0.11111111      -0.33333333 </v>
   <v>      -0.33333333       0.11111111      -0.44444444 </v>
   <v>      -0.44444444       0.33333333      -0.11111111 </v>
   <v>      -0.11111111       0.44444444      -0.33333333 </v>
   <v>      -0.44444444      -0.11111111      -0.33333333 </v>
   <v>      -0.33333333      -0.44444444      -0.11111111 </v>
   <v>      -0.11111111      -0.33333333      -0.44444444 </v>
   <v>       0.44444444       0.44444444       0.11111111 </v>
   <v>       0.11111111       0.44444444       0.44444444 </v>
   <v>       0.44444444       0.11111111       0.44444444 </v>
   <v>      -0.44444444       0.44444444       0.11111111 </v>
   <v>      -0.44444444       0.11111111       0.44444444 </v>
   <v>      -0.11111111       0.44444444       0.44444444 </v>
   <v>      -0.44444444      -0.44444444       0.11111111 </v>
   <v>      -0.11111111      -0.44444444       0.44444444 </v>
   <v>      -0.44444444      -0.11111111       0.44444444 </v>
   <v>       0.44444444      -0.44444444       0.11111111 </v>
   <v>       0.44444444      -0.11111111       0.44444444 </v>
   <v>       0.11111111      -0.44444444       0.44444444 </v>
   <v>       0.22222222       0.22222222       0.22222222 </v>
   <v>      -0.22222222       0.22222222       0.22222222 </v>
   <v>      -0.22222222      -0.22222222       0.22222222 </v>
   <v>       0.22222222      -0.22222222       0.22222222 </v>
   <v>       0.33333333       0.22222222       0.22222222 </v>
   <v>       0.22222222       0.33333333       0.22222222 </v>
   <v>       0.22222222       0.22222222       0.33333333 </v>
   <v>      -0.22222222       0.33333333       0.22222222 </v>
   <v>      -0.33333333       0.22222222       0.22222222 </v>
   <v>      -0.22222222       0.22222222       0.33333333 </v>
   <v>      -0.33333333      -0.22222222       0.22222222 </v>
   <v>      -0.22222222      -0.33333333       0.22222222 </v>
   <v>      -0.22222222      -0.22222222       0.33333333 </v>
   <v>       0.22222222      -0.33333333       0.22222222 </v>
   <v>       0.33333333      -0.22222222       0.22222222 </v>
   <v>       0.22222222      -0.22222222       0.33333333 </v>
   <v>       0.44444444       0.22222222       0.22222222 </v>
   <v>       0.22222222       0.44444444       0.22222222 </v>
   <v>       0.22222222       0.22222222       0.44444444 </v>
   <v>      -0.22222222       0.44444444       0.22222222 </v>
   <v>      -0.44444444       0.22222222       0.22222222 </v>
   <v>      -0.22222222       0.22222222       0.44444444 </v>
   <v>      -0.44444444      -0.22222222       0.22222222 </v>
   <v>      -0.22222222      -0.44444444       0.22222222 </v>
   <v>      -0.22222222      -0.22222222       0.44444444 </v>
   <v>       0.22222222      -0.44444444       0.22222222 </v>
   <v>       0.44444444      -0.22222222       0.22222222 </v>
   <v>       0.22222222      -0.22222222       0.44444444 </v>
   <v>       0.33333333       0.33333333       0.22222222 </v>
   <v>       0.22222222       0.33333333       0.33333333 </v>
   <v>       0.33333333       0.22222222       0.33333333 </v>
   <v>      -0.33333333       0.33333333       0.22222222 </v>
   <v>      -0.33333333       0.22222222       0.33333333 </v>
   <v>      -0.22222222       0.33333333       0.33333333 </v>
   <v>      -0.33333333      -0.33333333       0.22222222 </v>
   <v>      -0.22222222      -0.33333333       0.33333333 </v>
   <v>      -0.33333333      -0.22222222       0.33333333 </v>
   <v>       0.33333333      -0.33333333       0.22222222 </v>
   <v>       0.33333333      -0.22222222       0.33333333 </v>
   <v>       0.22222222      -0.33333333       0.33333333 </v>
   <v>       0.44444444       0.33333333       0.22222222 </v>
   <v>       0.22222222       0.44444444       0.33333333 </v>
   <v>       0.33333333       0.22222222       0.44444444 </v>
   <v>      -0.33333333       0.44444444       0.22222222 </v>
   <v>      -0.44444444       0.22222222       0.33333333 </v>
   <v>      -0.22222222       0.33333333       0.44444444 </v>
   <v>      -0.44444444      -0.33333333       0.22222222 </v>
   <v>      -0.22222222      -0.44444444       0.33333333 </v>
   <v>      -0.33333333      -0.22222222       0.44444444 </v>
   <v>       0.33333333      -0.44444444       0.22222222 </v>
   <v>       0.44444444      -0.22222222       0.33333333 </v>
   <v>       0.22222222      -0.33333333       0.44444444 </v>
   <v>       0.22222222      -0.44444444      -0.33333333 </v>
   <v>       0.33333333      -0.22222222      -0.44444444 </v>
   <v>       0.44444444      -0.33333333      -0.22222222 </v>
   <v>       0.22222222       0.33333333      -0.44444444 </v>
   <v>       0.33333333       0.44444444      -0.22222222 </v>
   <v>       0.44444444       0.22222222      -0.33333333 </v>
   <v>      -0.33333333       0.22222222      -0.44444444 </v>
   <v>      -0.44444444       0.33333333      -0.22222222 </v>
   <v>      -0.22222222       0.44444444      -0.33333333 </v>
   <v>      -0.44444444      -0.22222222      -0.33333333 </v>
   <v>      -0.33333333      -0.44444444      -0.22222222 </v>
   <v>      -0.22222222      -0.33333333      -0.44444444 </v>
   <v>       0.44444444       0.44444444       0.22222222 </v>
   <v>       0.22222222       0.44444444       0.44444444 </v>
   <v>       0.44444444       0.22222222       0.44444444 </v>
   <v>      -0.44444444       0.44444444       0.22222222 </v>
   <v>      -0.44444444       0.22222222       0.44444444 </v>
   <v>      -0.22222222       0.44444444       0.44444444 </v>
   <v>      -0.44444444      -0.44444444       0.22222222 </v>
   <v>      -0.22222222      -0.44444444       0.44444444 </v>
   <v>      -0.44444444      -0.22222222       0.44444444 </v>
   <v>       0.44444444      -0.44444444       0.22222222 </v>
   <v>       0.44444444      -0.22222222       0.44444444 </v>
   <v>       0.22222222      -0.44444444       0.44444444 </v>
   <v>       0.33333333       0.33333333       0.33333333 </v>
   <v>      -0.33333333       0.33333333       0.33333333 </v>
   <v>      -0.33333333      -0.33333333       0.33333333 </v>
   <v>       0.33333333      -0.33333333       0.33333333 </v>
   <v>       0.44444444       0.33333333       0.33333333 </v>
   <v>       0.33333333       0.44444444       0.33333333 </v>
   <v>       0.33333333       0.33333333       0.44444444 </v>
   <v>      -0.33333333       0.44444444       0.33333333 </v>
   <v>      -0.44444444       0.33333333       0.33333333 </v>
   <v>      -0.33333333       0.33333333       0.44444444 </v>
   <v>      -0.44444444      -0.33333333       0.33333333 </v>
   <v>      -0.33333333      -0.44444444       0.33333333 </v>
   <v>      -0.33333333      -0.33333333       0.44444444 </v>
   <v>       0.33333333      -0.44444444       0.33333333 </v>
   <v>       0.44444444      -0.33333333       0.33333333 </v>
   <v>       0.33333333      -0.33333333       0.44444444 </v>
   <v>       0.44444444       0.44444444       0.33333333 </v>
   <v>       0.33333333       0.44444444       0.44444444 </v>
   <v>       0.44444444       0.33333333       0.44444444 </v>
   <v>      -0.44444444       0.44444444       0.33333333 </v>
   <v>      -0.44444444       0.33333333       0.44444444 </v>
   <v>      -0.33333333       0.44444444       0.44444444 </v>
   <v>      -0.44444444      -0.44444444       0.33333333 </v>
   <v>      -0.33333333      -0.44444444       0.44444444 </v>
   <v>      -0.44444444      -0.33333333       0.44444444 </v>
   <v>       0.44444444      -0.44444444       0.33333333 </v>
   <v>       0.44444444      -0.33333333       0.44444444 </v>
   <v>       0.33333333      -0.44444444       0.44444444 </v>
   <v>       0.44444444       0.44444444       0.44444444 </v>
   <v>      -0.44444444       0.44444444       0.44444444 </v>
   <v>      -0.44444444      -0.44444444       0.44444444 </v>
   <v>       0.44444444      -0.44444444       0.44444444 </v>
  </varray>
  <varray name="weights" >
   <v>       0.00137174 </v>
   <v>       0.00274348 </v>
   <v>       0.00274348 </v>
   <v>       0.00274348 </v>
   <v>       0.00274348 </v>
   <v>       0.00274348 </v>
   <v>       0.00274348 </v>
   <v>       0.00274348 </v>
   <v>       0.00274348 </v>
   <v>       0.00274348 </v>
   <v>       0.00274348 </v>
   <v>       0.00274348 </v>
   <v>       0.00274348 </v>
   <v>       0.00274348 </v>
   <v>       0.00274348 </v>
   <v>       0.00274348 </v>
   <v>       0.00274348 </v>
   <v>       0.00274348 </v>
   <v>       0.00274348 </v>
   <v>       0.00274348 </v>
   <v>       0.00274348 </v>
   <v>       0.00274348 </v>
   <v>       0.00274348 </v>
   <v>       0.00274348 </v>
   <v>       0.00274348 </v>
   <v>       0.00274348 </v>
   <v>       0.00274348 </v>
   <v>       0.00274348 </v>
   <v>       0.00274348 </v>
   <v>       0.00274348 </v>
   <v>       0.00274348 </v>
   <v>       0.00274348 </v>
   <v>       0.00274348 </v>
   <v>       0.00274348 </v>
   <v>       0.00274348 </v>
   <v>       0.00274348 </v>
   <v>       0.00274348 </v>
   <v>       0.00274348 </v>
   <v>       0.00274348 </v>
   <v>       0.00274348 </v>
   <v>       0.00274348 </v>
   <v>       0.00274348 </v>
   <v>       0.00274348 </v>
   <v>       0.00274348 </v>
   <v>       0.00274348 </v>
   <v>       0.00274348 </v>
   <v>       0.00274348 </v>
   <v>       0.00274348 </v>
   <v>       0.00274348 </v>
   <v>       0.00274348 </v>
   <v>       0.00274348 </v>
   <v>       0.00274348 </v>
   <v>       0.00274348 </v>
   <v>       0.00274348 </v>
   <v>       0.00274348 </v>
   <v>       0.00274348 </v>
   <v>       0.00274348 </v>
   <v>       0.00274348 </v>
   <v>       0.00274348 </v>
   <v>       0.00274348 </v>
   <v>       0.00274348 </v>
   <v>       0.00274348 </v>
   <v>       0.00274348 </v>
   <v>       0.00274348 </v>
   <v>       0.00274348 </v>
   <v>       0.00274348 </v>
   <v>       0.00274348 </v>
   <v>       0.00274348 </v>
   <v>       0.00274348 </v>
   <v>       0.00274348 </v>
   <v>       0.00274348 </v>
   <v>       0.00274348 </v>
   <v>       0.00274348 </v>
   <v>       0.00274348 </v>
   <v>       0.00274348 </v>
   <v>       0.00274348 </v>
   <v>       0.00274348 </v>
   <v>       0.00274348 </v>
   <v>       0.00274348 </v>
   <v>       0.00274348 </v>
   <v>       0.00274348 </v>
   <v>       0.00274348 </v>
   <v>       0.00274348 </v>
   <v>       0.00274348 </v>
   <v>       0.00274348 </v>
   <v>       0.00274348 </v>
   <v>       0.00274348 </v>
   <v>       0.00274348 </v>
   <v>       0.00274348 </v>
   <v>       0.00274348 </v>
   <v>       0.00274348 </v>
   <v>       0.00274348 </v>
   <v>       0.00274348 </v>
   <v>       0.00274348 </v>
   <v>       0.00274348 </v>
   <v>       0.00274348 </v>
   <v>       0.00274348 </v>
   <v>       0.00274348 </v>
   <v>       0.00274348 </v>
   <v>       0.00274348 </v>
   <v>       0.00274348 </v>
   <v>       0.00274348 </v>
   <v>       0.00274348 </v>
   <v>       0.00274348 </v>
   <v>       0.00274348 </v>
   <v>       0.00274348 </v>
   <v>       0.00274348 </v>
   <v>       0.00274348 </v>
   <v>       0.00274348 </v>
   <v>       0.00274348 </v>
   <v>       0.00274348 </v>
   <v>       0.00274348 </v>
   <v>       0.00274348 </v>
   <v>       0.00274348 </v>
   <v>       0.00274348 </v>
   <v>       0.00274348 </v>
   <v>       0.00274348 </v>
   <v>       0.00274348 </v>
   <v>       0.00274348 </v>
   <v>       0.00274348 </v>
   <v>       0.00274348 </v>
   <v>       0.00274348 </v>
   <v>       0.00274348 </v>
   <v>       0.00274348 </v>
   <v>       0.00274348 </v>
   <v>       0.00274348 </v>
   <v>       0.00274348 </v>
   <v>       0.00274348 </v>
   <v>       0.00274348 </v>
   <v>       0.00274348 </v>
   <v>       0.00274348 </v>
   <v>       0.00274348 </v>
   <v>       0.00274348 </v>
   <v>       0.00274348 </v>
   <v>       0.00274348 </v>
   <v>       0.00274348 </v>
   <v>       0.00274348 </v>
   <v>       0.00274348 </v>
   <v>       0.00274348 </v>
   <v>       0.00274348 </v>
   <v>       0.00274348 </v>
   <v>       0.00274348 </v>
   <v>       0.00274348 </v>
   <v>       0.00274348 </v>
   <v>       0.00274348 </v>
   <v>       0.00274348 </v>
   <v>       0.00274348 </v>
   <v>       0.00274348 </v>
   <v>       0.00274348 </v>
   <v>       0.00274348 </v>
   <v>       0.00274348 </v>
   <v>       0.00274348 </v>
   <v>       0.00274348 </v>
   <v>       0.00274348 </v>
   <v>       0.00274348 </v>
   <v>       0.00274348 </v>
   <v>       0.00274348 </v>
   <v>       0.00274348 </v>
   <v>       0.00274348 </v>
   <v>       0.00274348 </v>
   <v>       0.00274348 </v>
   <v>       0.00274348 </v>
   <v>       0.00274348 </v>
   <v>       0.00274348 </v>
   <v>       0.00274348 </v>
   <v>       0.00274348 </v>
   <v>       0.00274348 </v>
   <v>       0.00274348 </v>
   <v>       0.00274348 </v>
   <v>       0.00274348 </v>
   <v>       0.00274348 </v>
   <v>       0.00274348 </v>
   <v>       0.00274348 </v>
   <v>       0.00274348 </v>
   <v>       0.00274348 </v>
   <v>       0.00274348 </v>
   <v>       0.00274348 </v>
   <v>       0.00274348 </v>
   <v>       0.00274348 </v>
   <v>       0.00274348 </v>
   <v>       0.00274348 </v>
   <v>       0.00274348 </v>
   <v>       0.00274348 </v>
   <v>       0.00274348 </v>
   <v>       0.00274348 </v>
   <v>       0.00274348 </v>
   <v>       0.00274348 </v>
   <v>       0.00274348 </v>
   <v>       0.00274348 </v>
   <v>       0.00274348 </v>
   <v>       0.00274348 </v>
   <v>       0.00274348 </v>
   <v>       0.00274348 </v>
   <v>       0.00274348 </v>
   <v>       0.00274348 </v>
   <v>       0.00274348 </v>
   <v>       0.00274348 </v>
   <v>       0.00274348 </v>
   <v>       0.00274348 </v>
   <v>       0.00274348 </v>
   <v>       0.00274348 </v>
   <v>       0.00274348 </v>
   <v>       0.00274348 </v>
   <v>       0.00274348 </v>
   <v>       0.00274348 </v>
   <v>       0.00274348 </v>
   <v>       0.00274348 </v>
   <v>       0.00274348 </v>
   <v>       0.00274348 </v>
   <v>       0.00274348 </v>
   <v>       0.00274348 </v>
   <v>       0.00274348 </v>
   <v>       0.00274348 </v>
   <v>       0.00274348 </v>
   <v>       0.00274348 </v>
   <v>       0.00274348 </v>
   <v>       0.00274348 </v>
   <v>       0.00274348 </v>
   <v>       0.00274348 </v>
   <v>       0.00274348 </v>
   <v>       0.00274348 </v>
   <v>       0.00274348 </v>
   <v>       0.00274348 </v>
   <v>       0.00274348 </v>
   <v>       0.00274348 </v>
   <v>       0.00274348 </v>
   <v>       0.00274348 </v>
   <v>       0.00274348 </v>
   <v>       0.00274348 </v>
   <v>       0.00274348 </v>
   <v>       0.00274348 </v>
   <v>       0.00274348 </v>
   <v>       0.00274348 </v>
   <v>       0.00274348 </v>
   <v>       0.00274348 </v>
   <v>       0.00274348 </v>
   <v>       0.00274348 </v>
   <v>       0.00274348 </v>
   <v>       0.00274348 </v>
   <v>       0.00274348 </v>
   <v>       0.00274348 </v>
   <v>       0.00274348 </v>
   <v>       0.00274348 </v>
   <v>       0.00274348 </v>
   <v>       0.00274348 </v>
   <v>       0.00274348 </v>
   <v>       0.00274348 </v>
   <v>       0.00274348 </v>
   <v>       0.00274348 </v>
   <v>       0.00274348 </v>
   <v>       0.00274348 </v>
   <v>       0.00274348 </v>
   <v>       0.00274348 </v>
   <v>       0.00274348 </v>
   <v>       0.00274348 </v>
   <v>       0.00274348 </v>
   <v>       0.00274348 </v>
   <v>       0.00274348 </v>
   <v>       0.00274348 </v>
   <v>       0.00274348 </v>
   <v>       0.00274348 </v>
   <v>       0.00274348 </v>
   <v>       0.00274348 </v>
   <v>       0.00274348 </v>
   <v>       0.00274348 </v>
   <v>       0.00274348 </v>
   <v>       0.00274348 </v>
   <v>       0.00274348 </v>
   <v>       0.00274348 </v>
   <v>       0.00274348 </v>
   <v>       0.00274348 </v>
   <v>       0.00274348 </v>
   <v>       0.00274348 </v>
   <v>       0.00274348 </v>
   <v>       0.00274348 </v>
   <v>       0.00274348 </v>
   <v>       0.00274348 </v>
   <v>       0.00274348 </v>
   <v>       0.00274348 </v>
   <v>       0.00274348 </v>
   <v>       0.00274348 </v>
   <v>       0.00274348 </v>
   <v>       0.00274348 </v>
   <v>       0.00274348 </v>
   <v>       0.00274348 </v>
   <v>       0.00274348 </v>
   <v>       0.00274348 </v>
   <v>       0.00274348 </v>
   <v>       0.00274348 </v>
   <v>       0.00274348 </v>
   <v>       0.00274348 </v>
   <v>       0.00274348 </v>
   <v>       0.00274348 </v>
   <v>       0.00274348 </v>
   <v>       0.00274348 </v>
   <v>       0.00274348 </v>
   <v>       0.00274348 </v>
   <v>       0.00274348 </v>
   <v>       0.00274348 </v>
   <v>       0.00274348 </v>
   <v>       0.00274348 </v>
   <v>       0.00274348 </v>
   <v>       0.00274348 </v>
   <v>       0.00274348 </v>
   <v>       0.00274348 </v>
   <v>       0.00274348 </v>
   <v>       0.00274348 </v>
   <v>       0.00274348 </v>
   <v>       0.00274348 </v>
   <v>       0.00274348 </v>
   <v>       0.00274348 </v>
   <v>       0.00274348 </v>
   <v>       0.00274348 </v>
   <v>       0.00274348 </v>
   <v>       0.00274348 </v>
   <v>       0.00274348 </v>
   <v>       0.00274348 </v>
   <v>       0.00274348 </v>
   <v>       0.00274348 </v>
   <v>       0.00274348 </v>
   <v>       0.00274348 </v>
   <v>       0.00274348 </v>
   <v>       0.00274348 </v>
   <v>       0.00274348 </v>
   <v>       0.00274348 </v>
   <v>       0.00274348 </v>
   <v>       0.00274348 </v>
   <v>       0.00274348 </v>
   <v>       0.00274348 </v>
   <v>       0.00274348 </v>
   <v>       0.00274348 </v>
   <v>       0.00274348 </v>
   <v>       0.00274348 </v>
   <v>       0.00274348 </v>
   <v>       0.00274348 </v>
   <v>       0.00274348 </v>
   <v>       0.00274348 </v>
   <v>       0.00274348 </v>
   <v>       0.00274348 </v>
   <v>       0.00274348 </v>
   <v>       0.00274348 </v>
   <v>       0.00274348 </v>
   <v>       0.00274348 </v>
   <v>       0.00274348 </v>
   <v>       0.00274348 </v>
   <v>       0.00274348 </v>
   <v>       0.00274348 </v>
   <v>       0.00274348 </v>
   <v>       0.00274348 </v>
   <v>       0.00274348 </v>
   <v>       0.00274348 </v>
   <v>       0.00274348 </v>
   <v>       0.00274348 </v>
   <v>       0.00274348 </v>
   <v>       0.00274348 </v>
   <v>       0.00274348 </v>
   <v>       0.00274348 </v>
   <v>       0.00274348 </v>
   <v>       0.00274348 </v>
   <v>       0.00274348 </v>
   <v>       0.00274348 </v>
   <v>       0.00274348 </v>
   <v>       0.00274348 </v>
   <v>       0.00274348 </v>
   <v>       0.00274348 </v>
  </varray>
 </kpoints>
 <parameters>
  <separator name="general" >
   <i type="string" name="SYSTEM">al</i>
   <i type="logical" name="LCOMPAT"> F  </i>
  </separator>
  <separator name="electronic" >
   <i type="string" name="PREC">accura</i>
   <i name="ENMAX">    600.00000000</i>
   <i name="ENAUG">    291.05200000</i>
   <i name="EDIFF">      0.00000100</i>
   <i type="int" name="IALGO">    38</i>
   <i type="int" name="IWAVPR">    10</i>
   <i type="int" name="NBANDS">    72</i>
   <i type="int" name="NBANDSLOW">    -1</i>
   <i type="int" name="NBANDSHIGH">    -1</i>
   <i name="NELECT">     96.00000000</i>
   <i type="int" name="TURBO">     0</i>
   <i type="int" name="IRESTART">     0</i>
   <i type="int" name="NREBOOT">     0</i>
   <i type="int" name="NMIN">     0</i>
   <i name="EREF">      0.00000000</i>
   <separator name="electronic smearing" >
    <i type="int" name="ISMEAR">     0</i>
    <i name="SIGMA">      0.05000000</i>
    <i name="KSPACING">      0.50000000</i>
    <i type="logical" name="KGAMMA"> T  </i>
    <i type="logical" name="KBLOWUP"> T  </i>
   </separator>
   <separator name="electronic projectors" >
    <i type="logical" name="LREAL"> T  </i>
    <v name="ROPT">     -0.00025000</v>
    <i type="int" name="LMAXPAW">    -1</i>
    <i type="int" name="LMAXMIX">     2</i>
    <i type="logical" name="NLSPLINE"> F  </i>
   </separator>
   <separator name="electronic startup" >
    <i type="int" name="ISTART">     0</i>
    <i type="int" name="ICHARG">     2</i>
    <i type="int" name="INIWAV">     1</i>
   </separator>
   <separator name="electronic spin" >
    <i type="int" name="ISPIN">     1</i>
    <i type="logical" name="LNONCOLLINEAR"> F  </i>
    <v name="MAGMOM">      1.00000000      1.00000000      1.00000000      1.00000000      1.00000000      1.00000000      1.00000000      1.00000000      1.00000000      1.00000000      1.00000000      1.00000000      1.00000000      1.00000000      1.00000000      1.00000000      1.00000000      1.00000000      1.00000000      1.00000000
      1.00000000      1.00000000      1.00000000      1.00000000      1.00000000      1.00000000      1.00000000      1.00000000      1.00000000      1.00000000      1.00000000      1.00000000</v>
    <i name="NUPDOWN">     -1.00000000</i>
    <i type="logical" name="LSORBIT"> F  </i>
    <v name="SAXIS">      0.00000000      0.00000000      1.00000000</v>
    <i type="logical" name="LSPIRAL"> F  </i>
    <v name="QSPIRAL">      0.00000000      0.00000000      0.00000000</v>
    <i type="logical" name="LZEROZ"> F  </i>
   </separator>
   <separator name="electronic exchange-correlation" >
    <i type="logical" name="LASPH"> F  </i>
    <i type="logical" name="LMETAGGA"> F  </i>
   </separator>
   <separator name="electronic convergence" >
    <i type="int" name="NELM">   200</i>
    <i type="int" name="NELMDL">    -5</i>
    <i type="int" name="NELMIN">     2</i>
    <i name="ENINI">    600.00000000</i>
    <separator name="electronic convergence detail" >
     <i type="logical" name="LDIAG"> T  </i>
     <i type="logical" name="LSUBROT"> F  </i>
     <i name="WEIMIN">      0.00000000</i>
     <i name="EBREAK">      0.00000000</i>
     <i name="DEPER">      0.30000000</i>
     <i type="int" name="NRMM">     4</i>
     <i name="TIME">      0.40000000</i>
    </separator>
   </separator>
   <separator name="electronic mixer" >
    <i name="AMIX">      0.40000000</i>
    <i name="BMIX">      1.00000000</i>
    <i name="AMIN">      0.10000000</i>
    <i name="AMIX_MAG">      1.60000000</i>
    <i name="BMIX_MAG">      1.00000000</i>
    <separator name="electronic mixer details" >
     <i type="int" name="IMIX">     4</i>
     <i type="logical" name="MIXFIRST"> F  </i>
     <i type="int" name="MAXMIX">   -45</i>
     <i name="WC">    100.00000000</i>
     <i type="int" name="INIMIX">     1</i>
     <i type="int" name="MIXPRE">     1</i>
     <i type="int" name="MREMOVE">     5</i>
    </separator>
   </separator>
   <separator name="electronic dipolcorrection" >
    <i type="logical" name="LDIPOL"> F  </i>
    <i type="logical" name="LMONO"> F  </i>
    <i type="int" name="IDIPOL">     0</i>
    <i name="EPSILON">      1.00000000</i>
    <v name="DIPOL">   -100.00000000   -100.00000000   -100.00000000</v>
    <i name="EFIELD">      0.00000000</i>
   </separator>
  </separator>
  <separator name="grids" >
   <i type="int" name="NGX">    70</i>
   <i type="int" name="NGY">    70</i>
   <i type="int" name="NGZ">    70</i>
   <i type="int" name="NGXF">   140</i>
   <i type="int" name="NGYF">   140</i>
   <i type="int" name="NGZF">   140</i>
   <i type="logical" name="ADDGRID"> F  </i>
  </separator>
  <separator name="ionic" >
   <i type="int" name="NSW">     0</i>
   <i type="int" name="IBRION">    -1</i>
   <i type="int" name="MDALGO">     0</i>
   <i type="int" name="ISIF">     2</i>
   <i name="PSTRESS">      0.00000000</i>
   <i name="EDIFFG">      0.00001000</i>
   <i type="int" name="NFREE">     0</i>
   <i name="POTIM">      0.50000000</i>
   <i name="SMASS">     -3.00000000</i>
   <i name="SCALEE">      1.00000000</i>
  </separator>
  <separator name="ionic md" >
   <i name="TEBEG">      0.00010000</i>
   <i name="TEEND">      0.00010000</i>
   <i type="int" name="NBLOCK">     1</i>
   <i type="int" name="KBLOCK">     1</i>
   <i type="int" name="NPACO">   256</i>
   <i name="APACO">     16.00000000</i>
  </separator>
  <separator name="symmetry" >
   <i type="int" name="ISYM">     2</i>
   <i name="SYMPREC">      0.00001000</i>
  </separator>
  <separator name="dos" >
   <i type="int" name="LORBIT">     0</i>
   <v name="RWIGS">     -1.00000000</v>
   <i type="int" name="NEDOS">   301</i>
   <i name="EMIN">     10.00000000</i>
   <i name="EMAX">    -10.00000000</i>
   <i name="EFERMI">      0.00000000</i>
  </separator>
  <separator name="writing" >
   <i type="int" name="NWRITE">     2</i>
   <i type="logical" name="LWAVE"> F  </i>
   <i type="logical" name="LDOWNSAMPLE"> F  </i>
   <i type="logical" name="LCHARG"> T  </i>
   <i type="logical" name="LPARD"> F  </i>
   <i type="logical" name="LVTOT"> F  </i>
   <i type="logical" name="LVHAR"> F  </i>
   <i type="logical" name="LELF"> F  </i>
   <i type="logical" name="LOPTICS"> F  </i>
   <v name="STM">      0.00000000      0.00000000      0.00000000      0.00000000      0.00000000      0.00000000      0.00000000</v>
  </separator>
  <separator name="performance" >
   <i type="int" name="NPAR">     8</i>
   <i type="int" name="NSIM">     8</i>
   <i type="int" name="NBLK">    -1</i>
   <i type="logical" name="LPLANE"> T  </i>
   <i type="logical" name="LSCALAPACK"> T  </i>
   <i type="logical" name="LSCAAWARE"> F  </i>
   <i type="logical" name="LSCALU"> F  </i>
   <i type="logical" name="LASYNC"> F  </i>
   <i type="logical" name="LORBITALREAL"> F  </i>
  </separator>
  <separator name="miscellaneous" >
   <i type="int" name="IDIOT">     3</i>
   <i type="int" name="PHON_NSTRUCT">    -1</i>
   <i type="logical" name="LMUSIC"> F  </i>
   <v name="POMASS">     26.98100000</v>
   <v name="DARWINR">      0.00000000</v>
   <v name="DARWINV">      1.00000000</v>
   <i type="logical" name="LCORR"> T  </i>
  </separator>
  <i type="logical" name="GGA_COMPAT"> T  </i>
  <i type="logical" name="LBERRY"> F  </i>
  <i type="int" name="ICORELEVEL">     0</i>
  <i type="logical" name="LDAU"> F  </i>
  <i type="int" name="I_CONSTRAINED_M">     0</i>
  <separator name="electronic exchange-correlation" >
   <i type="string" name="GGA">PE</i>
   <i type="int" name="VOSKOWN">     0</i>
   <i type="logical" name="LHFCALC"> F  </i>
   <i type="string" name="PRECFOCK"></i>
   <i type="logical" name="LSYMGRAD"> F  </i>
   <i type="logical" name="LHFONE"> F  </i>
   <i type="logical" name="LRHFCALC"> F  </i>
   <i type="logical" name="LTHOMAS"> F  </i>
   <i type="logical" name="LMODELHF"> F  </i>
   <i type="logical" name="LFOCKACE"> F  </i>
   <i name="ENCUT4O">     -1.00000000</i>
   <i type="int" name="EXXOEP">     0</i>
   <i type="int" name="FOURORBIT">     0</i>
   <i name="AEXX">      0.00000000</i>
   <i name="HFALPHA">      0.00000000</i>
   <i name="MCALPHA">      0.00000000</i>
   <i name="ALDAX">      1.00000000</i>
   <i name="AGGAX">      1.00000000</i>
   <i name="ALDAC">      1.00000000</i>
   <i name="AGGAC">      1.00000000</i>
   <i type="int" name="NKREDX">     1</i>
   <i type="int" name="NKREDY">     1</i>
   <i type="int" name="NKREDZ">     1</i>
   <i type="logical" name="SHIFTRED"> F  </i>
   <i type="logical" name="ODDONLY"> F  </i>
   <i type="logical" name="EVENONLY"> F  </i>
   <i type="int" name="LMAXFOCK">     0</i>
   <i type="int" name="NMAXFOCKAE">     0</i>
   <i type="logical" name="LFOCKAEDFT"> F  </i>
   <i name="HFSCREEN">      0.00000000</i>
   <i name="HFSCREENC">      0.00000000</i>
   <i type="int" name="NBANDSGWLOW">     0</i>
  </separator>
  <separator name="vdW DFT" >
   <i type="logical" name="LUSE_VDW"> F  </i>
   <i name="Zab_VDW">     -0.84910000</i>
   <i name="PARAM1">      0.12340000</i>
   <i name="PARAM2">      1.00000000</i>
   <i name="PARAM3">      0.00000000</i>
  </separator>
  <separator name="model GW" >
   <i type="int" name="MODEL_GW">     0</i>
   <i name="MODEL_EPS0">      9.88389577</i>
   <i name="MODEL_ALPHA">      1.00000000</i>
  </separator>
  <separator name="linear response parameters" >
   <i type="logical" name="LEPSILON"> F  </i>
   <i type="logical" name="LRPA"> F  </i>
   <i type="logical" name="LNABLA"> F  </i>
   <i type="logical" name="LVEL"> F  </i>
   <i type="int" name="KINTER">     0</i>
   <i name="CSHIFT">      0.10000000</i>
   <i name="OMEGAMAX">     -1.00000000</i>
   <i name="DEG_THRESHOLD">      0.00200000</i>
   <i name="RTIME">     -0.10000000</i>
   <i name="WPLASMAI">      0.00000000</i>
   <v name="DFIELD">      0.00000000      0.00000000      0.00000000</v>
   <v name="WPLASMA">      0.00000000      0.00000000      0.00000000      0.00000000      0.00000000      0.00000000      0.00000000      0.00000000      0.00000000</v>
  </separator>
  <separator name="orbital magnetization" >
   <i type="logical" name="NUCIND"> F  </i>
   <v name="MAGPOS">      0.00000000      0.00000000      0.00000000</v>
   <i type="logical" name="LNICSALL"> T  </i>
   <i type="logical" name="ORBITALMAG"> F  </i>
   <i type="logical" name="LMAGBLOCH"> F  </i>
   <i type="logical" name="LCHIMAG"> F  </i>
   <i type="logical" name="LGAUGE"> T  </i>
   <i type="int" name="MAGATOM">     0</i>
   <v name="MAGDIPOL">      0.00000000      0.00000000      0.00000000</v>
   <v name="AVECCONST">      0.00000000      0.00000000      0.00000000</v>
  </separator>
  <separator name="response functions" >
   <i type="logical" name="LFINITE_TEMPERATURE"> F  </i>
   <i type="logical" name="LADDER"> F  </i>
   <i type="logical" name="LRPAFORCE"> F  </i>
   <i type="logical" name="LFXC"> F  </i>
   <i type="logical" name="LHARTREE"> T  </i>
   <i type="int" name="IBSE">     0</i>
   <v type="int" name="KPOINT">    -1     0     0     0</v>
   <i type="logical" name="LTCTC"> F  </i>
   <i type="logical" name="LTCTE"> F  </i>
   <i type="logical" name="LTETE"> F  </i>
   <i type="logical" name="LTRIPLET"> F  </i>
   <i type="logical" name="LFXCEPS"> F  </i>
   <i type="logical" name="LFXHEG"> F  </i>
   <i type="int" name="NATURALO">     2</i>
   <i type="logical" name="LHOLEGF"> F  </i>
   <i type="logical" name="L2ORDER"> F  </i>
   <i type="logical" name="LDMP1"> F  </i>
   <i type="logical" name="LMP2LT"> F  </i>
   <i type="logical" name="LSMP2LT"> F  </i>
   <i type="logical" name="LGWLF"> F  </i>
   <i name="ENCUTGW">     -2.00000000</i>
   <i name="ENCUTGWSOFT">     -2.00000000</i>
   <i name="ENCUTLF">     -1.00000000</i>
   <i type="logical" name="LESF_SPLINES"> F  </i>
   <i type="int" name="LMAXMP2">    -1</i>
   <i name="SCISSOR">      0.00000000</i>
   <i type="int" name="NOMEGA">     0</i>
   <i type="int" name="NOMEGAR">     0</i>
   <i type="int" name="NBANDSGW">    -1</i>
   <i type="int" name="NBANDSO">    -1</i>
   <i type="int" name="NBANDSV">    -1</i>
   <i type="int" name="NELM">   200</i>
   <i type="int" name="NELMHF">     1</i>
   <i type="int" name="DIM">     3</i>
   <i type="int" name="IESPILON">     4</i>
   <i type="int" name="ANTIRES">     0</i>
   <i name="OMEGAMAX">    -30.00000000</i>
   <i name="OMEGAMIN">    -30.00000000</i>
   <i name="OMEGATL">   -200.00000000</i>
   <i type="int" name="OMEGAGRID">     0</i>
   <i name="CSHIFT">     -0.10000000</i>
   <i type="logical" name="LSELFENERGY"> F  </i>
   <i type="logical" name="LSPECTRAL"> F  </i>
   <i type="logical" name="LSPECTRALGW"> F  </i>
   <i type="logical" name="LSINGLES"> F  </i>
   <i type="logical" name="LFERMIGW"> F  </i>
   <i type="logical" name="ODDONLYGW"> F  </i>
   <i type="logical" name="EVENONLYGW"> F  </i>
   <i type="int" name="NKREDLFX">     1</i>
   <i type="int" name="NKREDLFY">     1</i>
   <i type="int" name="NKREDLFZ">     1</i>
   <i type="int" name="MAXMEM">  2800</i>
   <i type="int" name="TELESCOPE">     0</i>
   <i type="int" name="NTAUPAR">    -1</i>
   <i type="int" name="NOMEGAPAR">    -1</i>
   <i name="DAMP_NEWTON">      0.80000001</i>
   <i name="LAMBDA">      1.00000000</i>
  </separator>
  <separator name="External order field" >
   <i name="OFIELD_KAPPA">      0.00000000</i>
   <v name="OFIELD_K">      0.00000000      0.00000000      0.00000000</v>
   <i name="OFIELD_Q6_NEAR">      0.00000000</i>
   <i name="OFIELD_Q6_FAR">      0.00000000</i>
   <i name="OFIELD_A">      0.00000000</i>
  </separator>
 </parameters>
 <atominfo>
  <atoms>      32 </atoms>
  <types>       1 </types>
  <array name="atoms" >
   <dimension dim="1">ion</dimension>
   <field type="string">element</field>
   <field type="int">atomtype</field>
   <set>
    <rc><c>Al</c><c>   1</c></rc>
    <rc><c>Al</c><c>   1</c></rc>
    <rc><c>Al</c><c>   1</c></rc>
    <rc><c>Al</c><c>   1</c></rc>
    <rc><c>Al</c><c>   1</c></rc>
    <rc><c>Al</c><c>   1</c></rc>
    <rc><c>Al</c><c>   1</c></rc>
    <rc><c>Al</c><c>   1</c></rc>
    <rc><c>Al</c><c>   1</c></rc>
    <rc><c>Al</c><c>   1</c></rc>
    <rc><c>Al</c><c>   1</c></rc>
    <rc><c>Al</c><c>   1</c></rc>
    <rc><c>Al</c><c>   1</c></rc>
    <rc><c>Al</c><c>   1</c></rc>
    <rc><c>Al</c><c>   1</c></rc>
    <rc><c>Al</c><c>   1</c></rc>
    <rc><c>Al</c><c>   1</c></rc>
    <rc><c>Al</c><c>   1</c></rc>
    <rc><c>Al</c><c>   1</c></rc>
    <rc><c>Al</c><c>   1</c></rc>
    <rc><c>Al</c><c>   1</c></rc>
    <rc><c>Al</c><c>   1</c></rc>
    <rc><c>Al</c><c>   1</c></rc>
    <rc><c>Al</c><c>   1</c></rc>
    <rc><c>Al</c><c>   1</c></rc>
    <rc><c>Al</c><c>   1</c></rc>
    <rc><c>Al</c><c>   1</c></rc>
    <rc><c>Al</c><c>   1</c></rc>
    <rc><c>Al</c><c>   1</c></rc>
    <rc><c>Al</c><c>   1</c></rc>
    <rc><c>Al</c><c>   1</c></rc>
    <rc><c>Al</c><c>   1</c></rc>
   </set>
  </array>
  <array name="atomtypes" >
   <dimension dim="1">type</dimension>
   <field type="int">atomspertype</field>
   <field type="string">element</field>
   <field>mass</field>
   <field>valence</field>
   <field type="string">pseudopotential</field>
   <set>
    <rc><c>  32</c><c>Al</c><c>     26.98100000</c><c>      3.00000000</c><c>  PAW_PBE Al 04Jan2001                  </c></rc>
   </set>
  </array>
 </atominfo>
 <structure name="initialpos" >
  <crystal>
   <varray name="basis" >
    <v>       8.07809510       0.00000000       0.00000000 </v>
    <v>       0.00000000       8.07809510       0.00000000 </v>
    <v>       0.00000000       0.00000000       8.07809510 </v>
   </varray>
   <i name="volume">    527.14110776 </i>
   <varray name="rec_basis" >
    <v>       0.12379156       0.00000000       0.00000000 </v>
    <v>       0.00000000       0.12379156       0.00000000 </v>
    <v>       0.00000000       0.00000000       0.12379156 </v>
   </varray>
  </crystal>
  <varray name="positions" >
   <v>       0.99765019       0.97923285       0.00685472 </v>
   <v>       0.00801125       0.27231414       0.24612037 </v>
   <v>       0.23666827       0.00354353       0.24676044 </v>
   <v>       0.23450507       0.24347116       0.99290820 </v>
   <v>       0.99949834       0.99790840       0.50874701 </v>
   <v>       0.00047543       0.23542294       0.76405309 </v>
   <v>       0.24715283       0.98929324       0.73521507 </v>
   <v>       0.25767234       0.23262121       0.49145450 </v>
   <v>       0.99572951       0.52330238       0.98787088 </v>
   <v>       0.99885652       0.75105918       0.24285980 </v>
   <v>       0.25490350       0.52002943       0.23472961 </v>
   <v>       0.26612279       0.74704601       0.98505751 </v>
   <v>       0.00326913       0.50784342       0.50059532 </v>
   <v>       0.00506060       0.75088248       0.76310674 </v>
   <v>       0.23499134       0.49272835       0.75249110 </v>
   <v>       0.25226438       0.75086550       0.47943464 </v>
   <v>       0.49032360       0.02067436       0.98924027 </v>
   <v>       0.49205350       0.25349914       0.25193339 </v>
   <v>       0.75634601       0.98470287       0.24115949 </v>
   <v>       0.75666360       0.24113260       0.00532538 </v>
   <v>       0.50480294       0.98561484       0.50740545 </v>
   <v>       0.49708019       0.25595026       0.73696125 </v>
   <v>       0.74054065       0.01686135       0.75568510 </v>
   <v>       0.75698444       0.25544679       0.50269806 </v>
   <v>       0.50645806       0.48160520       0.99499473 </v>
   <v>       0.50322618       0.74057095       0.25178967 </v>
   <v>       0.75209660       0.48125973       0.23197751 </v>
   <v>       0.72313731       0.75447777       0.00005983 </v>
   <v>       0.51163081       0.50924259       0.49852577 </v>
   <v>       0.49507667       0.74093482       0.74852432 </v>
   <v>       0.75530233       0.50481877       0.75474169 </v>
   <v>       0.75606169       0.74301582       0.50012104 </v>
  </varray>
 </structure>
 <calculation>
  <scstep>
   <time name="dav">   47.27   47.61</time>
   <time name="total">   47.33   47.67</time>
   <energy>
    <i name="alphaZ">     -6.52466918 </i>
    <i name="ewald">  -2347.57424790 </i>
    <i name="hartreedc">     -5.69599363 </i>
    <i name="XCdc">   -839.48413978 </i>
    <i name="pawpsdc">   2118.40502803 </i>
    <i name="pawaedc">  -1095.85986421 </i>
    <i name="eentropy">     -0.00817434 </i>
    <i name="bandstr">    600.98296512 </i>
    <i name="atom">   1713.23359074 </i>
    <i name="e_fr_energy">    137.47449485 </i>
    <i name="e_wo_entrp">    137.48266919 </i>
    <i name="e_0_energy">    137.47858202 </i>
   </energy>
  </scstep>
  <scstep>
   <time name="dav">   53.99   54.37</time>
   <time name="total">   54.00   54.38</time>
   <energy>
    <i name="e_fr_energy">   -106.51588928 </i>
    <i name="e_wo_entrp">   -106.50071100 </i>
    <i name="e_0_energy">   -106.50830014 </i>
   </energy>
  </scstep>
  <scstep>
   <time name="dav">   57.13   57.53</time>
   <time name="total">   57.14   57.54</time>
   <energy>
    <i name="e_fr_energy">   -119.41378739 </i>
    <i name="e_wo_entrp">   -119.39752565 </i>
    <i name="e_0_energy">   -119.40565652 </i>
   </energy>
  </scstep>
  <scstep>
   <time name="dav">   55.65   56.04</time>
   <time name="total">   55.66   56.05</time>
   <energy>
    <i name="e_fr_energy">   -119.65250862 </i>
    <i name="e_wo_entrp">   -119.63635308 </i>
    <i name="e_0_energy">   -119.64443085 </i>
   </energy>
  </scstep>
  <scstep>
   <time name="dav">   56.60   57.00</time>
   <time name="total">   59.34   59.75</time>
   <energy>
    <i name="e_fr_energy">   -119.65509315 </i>
    <i name="e_wo_entrp">   -119.63894152 </i>
    <i name="e_0_energy">   -119.64701733 </i>
   </energy>
  </scstep>
  <scstep>
   <time name="dav">   58.64   59.04</time>
   <time name="total">   61.75   62.16</time>
   <energy>
    <i name="e_fr_energy">   -119.06246972 </i>
    <i name="e_wo_entrp">   -119.04665589 </i>
    <i name="e_0_energy">   -119.05456281 </i>
   </energy>
  </scstep>
  <scstep>
   <time name="dav">   57.52   57.91</time>
   <time name="total">   60.61   61.03</time>
   <energy>
    <i name="e_fr_energy">   -118.78721470 </i>
    <i name="e_wo_entrp">   -118.77151748 </i>
    <i name="e_0_energy">   -118.77936609 </i>
   </energy>
  </scstep>
  <scstep>
   <time name="dav">   59.01   59.41</time>
   <time name="total">   62.12   62.54</time>
   <energy>
    <i name="e_fr_energy">   -118.75520563 </i>
    <i name="e_wo_entrp">   -118.73943011 </i>
    <i name="e_0_energy">   -118.74731787 </i>
   </energy>
  </scstep>
  <scstep>
   <time name="dav">   57.44   57.82</time>
   <time name="total">   60.55   60.95</time>
   <energy>
    <i name="e_fr_energy">   -118.75363856 </i>
    <i name="e_wo_entrp">   -118.73782888 </i>
    <i name="e_0_energy">   -118.74573372 </i>
   </energy>
  </scstep>
  <scstep>
   <time name="dav">   59.79   60.20</time>
   <time name="total">   62.90   63.33</time>
   <energy>
    <i name="e_fr_energy">   -118.75355974 </i>
    <i name="e_wo_entrp">   -118.73774422 </i>
    <i name="e_0_energy">   -118.74565198 </i>
   </energy>
  </scstep>
  <scstep>
   <time name="dav">   59.29   59.69</time>
   <time name="total">   62.40   62.83</time>
   <energy>
    <i name="e_fr_energy">   -118.75355894 </i>
    <i name="e_wo_entrp">   -118.73774404 </i>
    <i name="e_0_energy">   -118.74565149 </i>
   </energy>
  </scstep>
  <scstep>
   <time name="dav">   39.61   39.89</time>
   <time name="total">   39.69   39.97</time>
   <energy>
    <i name="alphaZ">     -6.52466918 </i>
    <i name="ewald">  -2347.57424790 </i>
    <i name="hartreedc">     -6.82312205 </i>
    <i name="XCdc">   -835.89887924 </i>
    <i name="pawpsdc">   2118.40502803 </i>
    <i name="pawaedc">  -1095.85986421 </i>
    <i name="eentropy">     -0.01581500 </i>
    <i name="bandstr">    342.30441999 </i>
    <i name="atom">   1713.23359074 </i>
    <i name="e_fr_energy">   -118.75355883 </i>
    <i name="e_wo_entrp">   -118.73774383 </i>
    <i name="e_0_energy">   -118.74565133 </i>
   </energy>
  </scstep>
  <structure>
   <crystal>
    <varray name="basis" >
     <v>       8.07809510       0.00000000       0.00000000 </v>
     <v>       0.00000000       8.07809510       0.00000000 </v>
     <v>       0.00000000       0.00000000       8.07809510 </v>
    </varray>
    <i name="volume">    527.14110776 </i>
    <varray name="rec_basis" >
     <v>       0.12379156       0.00000000       0.00000000 </v>
     <v>       0.00000000       0.12379156       0.00000000 </v>
     <v>       0.00000000       0.00000000       0.12379156 </v>
    </varray>
   </crystal>
   <varray name="positions" >
    <v>       0.99765019       0.97923285       0.00685472 </v>
    <v>       0.00801125       0.27231414       0.24612037 </v>
    <v>       0.23666827       0.00354353       0.24676044 </v>
    <v>       0.23450507       0.24347116       0.99290820 </v>
    <v>       0.99949834       0.99790840       0.50874701 </v>
    <v>       0.00047543       0.23542294       0.76405309 </v>
    <v>       0.24715283       0.98929324       0.73521507 </v>
    <v>       0.25767234       0.23262121       0.49145450 </v>
    <v>       0.99572951       0.52330238       0.98787088 </v>
    <v>       0.99885652       0.75105918       0.24285980 </v>
    <v>       0.25490350       0.52002943       0.23472961 </v>
    <v>       0.26612279       0.74704601       0.98505751 </v>
    <v>       0.00326913       0.50784342       0.50059532 </v>
    <v>       0.00506060       0.75088248       0.76310674 </v>
    <v>       0.23499134       0.49272835       0.75249110 </v>
    <v>       0.25226438       0.75086550       0.47943464 </v>
    <v>       0.49032360       0.02067436       0.98924027 </v>
    <v>       0.49205350       0.25349914       0.25193339 </v>
    <v>       0.75634601       0.98470287       0.24115949 </v>
    <v>       0.75666360       0.24113260       0.00532538 </v>
    <v>       0.50480294       0.98561484       0.50740545 </v>
    <v>       0.49708019       0.25595026       0.73696125 </v>
    <v>       0.74054065       0.01686135       0.75568510 </v>
    <v>       0.75698444       0.25544679       0.50269806 </v>
    <v>       0.50645806       0.48160520       0.99499473 </v>
    <v>       0.50322618       0.74057095       0.25178967 </v>
    <v>       0.75209660       0.48125973       0.23197751 </v>
    <v>       0.72313731       0.75447777       0.00005983 </v>
    <v>       0.51163081       0.50924259       0.49852577 </v>
    <v>       0.49507667       0.74093482       0.74852432 </v>
    <v>       0.75530233       0.50481877       0.75474169 </v>
    <v>       0.75606169       0.74301582       0.50012104 </v>
   </varray>
  </structure>
  <varray name="forces" >
   <v>       0.03995680       0.54373117      -0.33965045 </v>
   <v>       0.02230009      -0.48654604       0.15650678 </v>
   <v>       0.39678666      -0.15216732      -0.15949187 </v>
   <v>       0.34744031       0.21023713       0.19849304 </v>
   <v>      -0.30786273       0.05021521      -0.31488811 </v>
   <v>      -0.15790907       0.34220976      -0.50271849 </v>
   <v>       0.18181498       0.18343035       0.37743692 </v>
   <v>      -0.24572661       0.65404808       0.23756587 </v>
   <v>       0.01910978      -0.70746199       0.64281488 </v>
   <v>      -0.07675718      -0.33006885       0.33757054 </v>
   <v>      -0.15289435      -0.76437499       0.13875447 </v>
   <v>      -0.12592077       0.22273409       0.42816275 </v>
   <v>       0.10530510      -0.30822005      -0.05417827 </v>
   <v>      -0.36585341       0.33029529      -0.84444249 </v>
   <v>       0.51828082      -0.03435688      -0.44449878 </v>
   <v>      -0.13698552      -0.08019878       0.55329068 </v>
   <v>      -0.02234321      -0.40494291       0.32116955 </v>
   <v>       0.19512669      -0.29621205       0.00828293 </v>
   <v>      -0.39077728       0.60562505       0.55101238 </v>
   <v>      -0.00564500       0.03919868      -0.08611264 </v>
   <v>       0.15262444       0.26890620      -0.46423179 </v>
   <v>      -0.07265605       0.04974812       0.09170504 </v>
   <v>       0.19720705      -0.70071884      -0.20758123 </v>
   <v>      -0.04669866      -0.16846004      -0.22743696 </v>
   <v>      -0.32843327       0.18894641      -0.07871382 </v>
   <v>       0.11493832       0.47174956      -0.19982827 </v>
   <v>      -0.09137456       0.69681324       0.53136091 </v>
   <v>       0.41612705      -0.11329204      -0.24019791 </v>
   <v>      -0.36900919      -0.42793352      -0.03945457 </v>
   <v>       0.15138446       0.08468844      -0.19340092 </v>
   <v>      -0.08641984      -0.23193571      -0.20686242 </v>
   <v>       0.12486417       0.26431323       0.02956224 </v>
  </varray>
  <varray name="stress" >
   <v>      11.28132471      -0.03242181      -0.30241792 </v>
   <v>      -0.03242180       9.16688832      -0.40069292 </v>
   <v>      -0.30241790      -0.40069290      15.78593035 </v>
  </varray>
  <energy>
   <i name="e_fr_energy">   -118.75355883 </i>
   <i name="e_wo_entrp">   -118.73774383 </i>
   <i name="e_0_energy">   -118.74565133 </i>
  </energy>
  <time name="totalsc">  754.36  759.59</time>
  <eigenvalues>
   <array>
    <dimension dim="1">band</dimension>
    <dimension dim="2">kpoint</dimension>
    <dimension dim="3">spin</dimension>
    <field>eigene</field>
    <field>occ</field>
    <set>
     <set comment="spin 1">
      <set comment="kpoint 1">
       <r>   -3.1607    1.0000 </r>
       <r>   -1.0131    1.0000 </r>
       <r>   -0.9999    1.0000 </r>
       <r>   -0.9810    1.0000 </r>
       <r>   -0.8749    1.0000 </r>
       <r>   -0.8183    1.0000 </r>
       <r>   -0.7909    1.0000 </r>
       <r>    1.0804    1.0000 </r>
       <r>    1.1201    1.0000 </r>
       <r>    1.1795    1.0000 </r>
       <r>    1.2306    1.0000 </r>
       <r>    1.2592    1.0000 </r>
       <r>    1.2796    1.0000 </r>
       <r>    1.3156    1.0000 </r>
       <r>    1.3567    1.0000 </r>
       <r>    1.3918    1.0000 </r>
       <r>    1.4803    1.0000 </r>
       <r>    1.4964    1.0000 </r>
       <r>    1.5916    1.0000 </r>
       <r>    3.3553    1.0000 </r>
       <r>    3.3858    1.0000 </r>
       <r>    3.3997    1.0000 </r>
       <r>    3.4181    1.0000 </r>
       <r>    3.5968    1.0000 </r>
       <r>    3.6232    1.0000 </r>
       <r>    3.6343    1.0000 </r>
       <r>    3.6751    1.0000 </r>
       <r>    5.0540    1.0000 </r>
       <r>    5.0750    1.0000 </r>
       <r>    5.1129    1.0000 </r>
       <r>    6.3409    1.0000 </r>
       <r>    6.3443    1.0000 </r>
       <r>    6.3667    1.0000 </r>
       <r>    6.9038    1.0000 </r>
       <r>    6.9743    1.0000 </r>
       <r>    7.0473    1.0000 </r>
       <r>    7.0509    1.0000 </r>
       <r>    7.0970    1.0000 </r>
       <r>    7.1152    1.0000 </r>
       <r>    7.1495    1.0000 </r>
       <r>    7.1658    1.0000 </r>
       <r>    7.2624    1.0000 </r>
       <r>    7.2808    1.0000 </r>
       <r>    7.3523    1.0000 </r>
       <r>    7.4387    1.0000 </r>
       <r>    7.9661    0.9065 </r>
       <r>    8.0686    0.0570 </r>
       <r>    8.1176    0.0015 </r>
       <r>    8.2048    0.0000 </r>
       <r>    8.2491    0.0000 </r>
       <r>    8.3194    0.0000 </r>
       <r>    8.9716    0.0000 </r>
       <r>    8.9996    0.0000 </r>
       <r>    9.0392    0.0000 </r>
       <r>    9.0457    0.0000 </r>
       <r>    9.0534    0.0000 </r>
       <r>    9.0657    0.0000 </r>
       <r>    9.1182    0.0000 </r>
       <r>    9.1271    0.0000 </r>
       <r>    9.1712    0.0000 </r>
       <r>    9.2306    0.0000 </r>
       <r>    9.2361    0.0000 </r>
       <r>    9.2570    0.0000 </r>
       <r>    9.2965    0.0000 </r>
       <r>    9.3421    0.0000 </r>
       <r>    9.3512    0.0000 </r>
       <r>    9.4032    0.0000 </r>
       <r>    9.4245    0.0000 </r>
       <r>    9.4933    0.0000 </r>
       <r>   10.5913    0.0000 </r>
       <r>   10.6218    0.0000 </r>
       <r>   10.6443    0.0000 </r>
      </set>
      <set comment="kpoint 2">
       <r>   -3.1328    1.0000 </r>
       <r>   -1.3954    1.0000 </r>
       <r>   -0.9738    1.0000 </r>
       <r>   -0.9180    1.0000 </r>
       <r>   -0.8503    1.0000 </r>
       <r>   -0.8021    1.0000 </r>
       <r>   -0.3786    1.0000 </r>
       <r>    0.7303    1.0000 </r>
       <r>    0.7938    1.0000 </r>
       <r>    0.8679    1.0000 </r>
       <r>    0.9232    1.0000 </r>
       <r>    1.2580    1.0000 </r>
       <r>    1.3236    1.0000 </r>
       <r>    1.3663    1.0000 </r>
       <r>    1.4215    1.0000 </r>
       <r>    1.7627    1.0000 </r>
       <r>    1.8208    1.0000 </r>
       <r>    1.8796    1.0000 </r>
       <r>    1.9490    1.0000 </r>
       <r>    2.9674    1.0000 </r>
       <r>    3.0256    1.0000 </r>
       <r>    3.0751    1.0000 </r>
       <r>    3.1143    1.0000 </r>
       <r>    3.9467    1.0000 </r>
       <r>    4.0075    1.0000 </r>
       <r>    4.0584    1.0000 </r>
       <r>    4.1001    1.0000 </r>
       <r>    4.5834    1.0000 </r>
       <r>    5.0935    1.0000 </r>
       <r>    5.1383    1.0000 </r>
       <r>    6.3530    1.0000 </r>
       <r>    6.3746    1.0000 </r>
       <r>    6.5035    1.0000 </r>
       <r>    6.6277    1.0000 </r>
       <r>    6.6397    1.0000 </r>
       <r>    6.6698    1.0000 </r>
       <r>    6.7952    1.0000 </r>
       <r>    6.8813    1.0000 </r>
       <r>    6.9152    1.0000 </r>
       <r>    7.0850    1.0000 </r>
       <r>    7.1572    1.0000 </r>
       <r>    7.2202    1.0000 </r>
       <r>    7.2691    1.0000 </r>
       <r>    7.6387    1.0000 </r>
       <r>    7.6672    1.0000 </r>
       <r>    7.9311    0.9895 </r>
       <r>    7.9969    0.6728 </r>
       <r>    8.3187    0.0000 </r>
       <r>    8.3569    0.0000 </r>
       <r>    8.4494    0.0000 </r>
       <r>    8.5209    0.0000 </r>
       <r>    8.6444    0.0000 </r>
       <r>    8.7296    0.0000 </r>
       <r>    8.7480    0.0000 </r>
       <r>    8.7984    0.0000 </r>
       <r>    8.8463    0.0000 </r>
       <r>    8.8998    0.0000 </r>
       <r>    8.9398    0.0000 </r>
       <r>    9.0232    0.0000 </r>
       <r>    9.2823    0.0000 </r>
       <r>    9.3007    0.0000 </r>
       <r>    9.3302    0.0000 </r>
       <r>    9.3459    0.0000 </r>
       <r>    9.3729    0.0000 </r>
       <r>    9.4094    0.0000 </r>
       <r>    9.6506    0.0000 </r>
       <r>    9.7494    0.0000 </r>
       <r>    9.8099    0.0000 </r>
       <r>    9.8563    0.0000 </r>
       <r>   10.2229    0.0000 </r>
       <r>   10.2674    0.0000 </r>
       <r>   10.3341    0.0000 </r>
      </set>
      <set comment="kpoint 3">
       <r>   -3.1329    1.0000 </r>
       <r>   -1.3965    1.0000 </r>
       <r>   -0.9562    1.0000 </r>
       <r>   -0.9158    1.0000 </r>
       <r>   -0.8802    1.0000 </r>
       <r>   -0.7874    1.0000 </r>
       <r>   -0.3844    1.0000 </r>
       <r>    0.7728    1.0000 </r>
       <r>    0.7905    1.0000 </r>
       <r>    0.8316    1.0000 </r>
       <r>    0.9199    1.0000 </r>
       <r>    1.2911    1.0000 </r>
       <r>    1.3207    1.0000 </r>
       <r>    1.3579    1.0000 </r>
       <r>    1.3904    1.0000 </r>
       <r>    1.7698    1.0000 </r>
       <r>    1.8359    1.0000 </r>
       <r>    1.8620    1.0000 </r>
       <r>    1.9512    1.0000 </r>
       <r>    3.0022    1.0000 </r>
       <r>    3.0194    1.0000 </r>
       <r>    3.0694    1.0000 </r>
       <r>    3.0930    1.0000 </r>
       <r>    3.9826    1.0000 </r>
       <r>    4.0042    1.0000 </r>
       <r>    4.0579    1.0000 </r>
       <r>    4.0687    1.0000 </r>
       <r>    4.6156    1.0000 </r>
       <r>    5.0852    1.0000 </r>
       <r>    5.1035    1.0000 </r>
       <r>    6.3607    1.0000 </r>
       <r>    6.3729    1.0000 </r>
       <r>    6.5766    1.0000 </r>
       <r>    6.6162    1.0000 </r>
       <r>    6.6630    1.0000 </r>
       <r>    6.7149    1.0000 </r>
       <r>    6.7355    1.0000 </r>
       <r>    6.7932    1.0000 </r>
       <r>    6.8814    1.0000 </r>
       <r>    7.1265    1.0000 </r>
       <r>    7.1749    1.0000 </r>
       <r>    7.1940    1.0000 </r>
       <r>    7.3062    1.0000 </r>
       <r>    7.6452    1.0000 </r>
       <r>    7.6539    1.0000 </r>
       <r>    7.9370    0.9839 </r>
       <r>    7.9570    0.9423 </r>
       <r>    8.3245    0.0000 </r>
       <r>    8.3964    0.0000 </r>
       <r>    8.4387    0.0000 </r>
       <r>    8.4730    0.0000 </r>
       <r>    8.7096    0.0000 </r>
       <r>    8.7365    0.0000 </r>
       <r>    8.7692    0.0000 </r>
       <r>    8.8220    0.0000 </r>
       <r>    8.8576    0.0000 </r>
       <r>    8.8981    0.0000 </r>
       <r>    8.9358    0.0000 </r>
       <r>    8.9687    0.0000 </r>
       <r>    9.2711    0.0000 </r>
       <r>    9.2995    0.0000 </r>
       <r>    9.3082    0.0000 </r>
       <r>    9.3443    0.0000 </r>
       <r>    9.3604    0.0000 </r>
       <r>    9.4118    0.0000 </r>
       <r>    9.6867    0.0000 </r>
       <r>    9.7036    0.0000 </r>
       <r>    9.7960    0.0000 </r>
       <r>    9.8415    0.0000 </r>
       <r>   10.2550    0.0000 </r>
       <r>   10.3208    0.0000 </r>
       <r>   10.3508    0.0000 </r>
      </set>
      <set comment="kpoint 4">
       <r>   -3.1330    1.0000 </r>
       <r>   -1.3887    1.0000 </r>
       <r>   -0.9764    1.0000 </r>
       <r>   -0.9316    1.0000 </r>
       <r>   -0.8629    1.0000 </r>
       <r>   -0.7790    1.0000 </r>
       <r>   -0.3819    1.0000 </r>
       <r>    0.7429    1.0000 </r>
       <r>    0.7843    1.0000 </r>
       <r>    0.8580    1.0000 </r>
       <r>    0.9473    1.0000 </r>
       <r>    1.2636    1.0000 </r>
       <r>    1.3232    1.0000 </r>
       <r>    1.3405    1.0000 </r>
       <r>    1.4308    1.0000 </r>
       <r>    1.7461    1.0000 </r>
       <r>    1.8210    1.0000 </r>
       <r>    1.8608    1.0000 </r>
       <r>    1.9760    1.0000 </r>
       <r>    2.9831    1.0000 </r>
       <r>    3.0264    1.0000 </r>
       <r>    3.0485    1.0000 </r>
       <r>    3.1321    1.0000 </r>
       <r>    3.9594    1.0000 </r>
       <r>    4.0093    1.0000 </r>
       <r>    4.0277    1.0000 </r>
       <r>    4.1127    1.0000 </r>
       <r>    4.5913    1.0000 </r>
       <r>    5.0866    1.0000 </r>
       <r>    5.1377    1.0000 </r>
       <r>    6.3395    1.0000 </r>
       <r>    6.3649    1.0000 </r>
       <r>    6.5451    1.0000 </r>
       <r>    6.5969    1.0000 </r>
       <r>    6.6363    1.0000 </r>
       <r>    6.6988    1.0000 </r>
       <r>    6.7721    1.0000 </r>
       <r>    6.8539    1.0000 </r>
       <r>    6.9688    1.0000 </r>
       <r>    7.0884    1.0000 </r>
       <r>    7.1382    1.0000 </r>
       <r>    7.2158    1.0000 </r>
       <r>    7.2799    1.0000 </r>
       <r>    7.6322    1.0000 </r>
       <r>    7.6880    1.0000 </r>
       <r>    7.9409    0.9788 </r>
       <r>    7.9823    0.8054 </r>
       <r>    8.2956    0.0000 </r>
       <r>    8.3914    0.0000 </r>
       <r>    8.4080    0.0000 </r>
       <r>    8.5140    0.0000 </r>
       <r>    8.6698    0.0000 </r>
       <r>    8.6863    0.0000 </r>
       <r>    8.7524    0.0000 </r>
       <r>    8.8096    0.0000 </r>
       <r>    8.8512    0.0000 </r>
       <r>    8.9035    0.0000 </r>
       <r>    8.9441    0.0000 </r>
       <r>    9.0045    0.0000 </r>
       <r>    9.2782    0.0000 </r>
       <r>    9.2998    0.0000 </r>
       <r>    9.3353    0.0000 </r>
       <r>    9.3548    0.0000 </r>
       <r>    9.3738    0.0000 </r>
       <r>    9.4361    0.0000 </r>
       <r>    9.6632    0.0000 </r>
       <r>    9.7380    0.0000 </r>
       <r>    9.8055    0.0000 </r>
       <r>    9.8560    0.0000 </r>
       <r>   10.2274    0.0000 </r>
       <r>   10.2640    0.0000 </r>
       <r>   10.3339    0.0000 </r>
      </set>
      <set comment="kpoint 5">
       <r>   -3.0491    1.0000 </r>
       <r>   -1.8024    1.0000 </r>
       <r>   -0.8917    1.0000 </r>
       <r>   -0.8354    1.0000 </r>
       <r>   -0.7699    1.0000 </r>
       <r>   -0.7226    1.0000 </r>
       <r>    0.1738    1.0000 </r>
       <r>    0.3367    1.0000 </r>
       <r>    0.3991    1.0000 </r>
       <r>    0.4777    1.0000 </r>
       <r>    0.5340    1.0000 </r>
       <r>    1.3397    1.0000 </r>
       <r>    1.4051    1.0000 </r>
       <r>    1.4542    1.0000 </r>
       <r>    1.5021    1.0000 </r>
       <r>    2.3060    1.0000 </r>
       <r>    2.3641    1.0000 </r>
       <r>    2.4163    1.0000 </r>
       <r>    2.4695    1.0000 </r>
       <r>    2.5976    1.0000 </r>
       <r>    2.6475    1.0000 </r>
       <r>    2.6868    1.0000 </r>
       <r>    2.7246    1.0000 </r>
       <r>    3.7926    1.0000 </r>
       <r>    4.4929    1.0000 </r>
       <r>    4.5559    1.0000 </r>
       <r>    4.6064    1.0000 </r>
       <r>    4.6512    1.0000 </r>
       <r>    5.1737    1.0000 </r>
       <r>    5.2172    1.0000 </r>
       <r>    5.7945    1.0000 </r>
       <r>    5.8784    1.0000 </r>
       <r>    5.9199    1.0000 </r>
       <r>    6.0005    1.0000 </r>
       <r>    6.2897    1.0000 </r>
       <r>    6.3987    1.0000 </r>
       <r>    6.4771    1.0000 </r>
       <r>    6.5051    1.0000 </r>
       <r>    7.1538    1.0000 </r>
       <r>    7.2139    1.0000 </r>
       <r>    7.2965    1.0000 </r>
       <r>    7.3296    1.0000 </r>
       <r>    7.6056    1.0000 </r>
       <r>    7.6674    1.0000 </r>
       <r>    7.8295    1.0000 </r>
       <r>    7.9611    0.9278 </r>
       <r>    8.0022    0.6164 </r>
       <r>    8.0534    0.1248 </r>
       <r>    8.1257    0.0007 </r>
       <r>    8.1613    0.0000 </r>
       <r>    8.2508    0.0000 </r>
       <r>    8.3502    0.0000 </r>
       <r>    8.4387    0.0000 </r>
       <r>    8.5022    0.0000 </r>
       <r>    8.5474    0.0000 </r>
       <r>    8.5780    0.0000 </r>
       <r>    8.6405    0.0000 </r>
       <r>    8.7008    0.0000 </r>
       <r>    8.7738    0.0000 </r>
       <r>    9.7460    0.0000 </r>
       <r>    9.7615    0.0000 </r>
       <r>    9.8295    0.0000 </r>
       <r>    9.8393    0.0000 </r>
       <r>    9.9038    0.0000 </r>
       <r>    9.9525    0.0000 </r>
       <r>   10.0597    0.0000 </r>
       <r>   10.1137    0.0000 </r>
       <r>   10.1410    0.0000 </r>
       <r>   10.1756    0.0000 </r>
       <r>   10.2285    0.0000 </r>
       <r>   10.3027    0.0000 </r>
       <r>   10.3865    0.0000 </r>
      </set>
      <set comment="kpoint 6">
       <r>   -3.0498    1.0000 </r>
       <r>   -1.8013    1.0000 </r>
       <r>   -0.8767    1.0000 </r>
       <r>   -0.8309    1.0000 </r>
[...]
       <r>    2.7350    1.0000 </r>
       <r>    2.8008    1.0000 </r>
       <r>    2.8730    1.0000 </r>
       <r>    2.8987    1.0000 </r>
       <r>    3.0187    1.0000 </r>
       <r>    3.0531    1.0000 </r>
       <r>    3.1235    1.0000 </r>
       <r>    3.2163    1.0000 </r>
       <r>    3.2766    1.0000 </r>
       <r>    3.3109    1.0000 </r>
       <r>    3.3541    1.0000 </r>
       <r>    3.4296    1.0000 </r>
       <r>    3.4945    1.0000 </r>
       <r>    3.5863    1.0000 </r>
       <r>    3.6276    1.0000 </r>
       <r>    3.7758    1.0000 </r>
       <r>    6.3481    1.0000 </r>
       <r>    6.4022    1.0000 </r>
       <r>    6.4567    1.0000 </r>
       <r>    6.6204    1.0000 </r>
       <r>    6.6716    1.0000 </r>
       <r>    6.7394    1.0000 </r>
       <r>    7.0129    1.0000 </r>
       <r>    7.0602    1.0000 </r>
       <r>    7.0753    1.0000 </r>
       <r>    7.1270    1.0000 </r>
       <r>    7.1562    1.0000 </r>
       <r>    7.2017    1.0000 </r>
       <r>    7.2694    1.0000 </r>
       <r>    7.3809    1.0000 </r>
       <r>    7.4149    1.0000 </r>
       <r>    7.4468    1.0000 </r>
       <r>    7.4809    1.0000 </r>
       <r>    7.5140    1.0000 </r>
       <r>    7.7596    1.0000 </r>
       <r>    7.8561    1.0000 </r>
       <r>    7.8988    0.9994 </r>
       <r>    8.0543    0.1196 </r>
       <r>    8.0881    0.0165 </r>
       <r>    8.2262    0.0000 </r>
       <r>   10.3800    0.0000 </r>
       <r>   10.7365    0.0000 </r>
       <r>   10.7705    0.0000 </r>
       <r>   10.8184    0.0000 </r>
       <r>   10.9217    0.0000 </r>
       <r>   10.9636    0.0000 </r>
       <r>   11.0155    0.0000 </r>
       <r>   11.0488    0.0000 </r>
       <r>   11.0849    0.0000 </r>
       <r>   11.1239    0.0000 </r>
       <r>   11.1435    0.0000 </r>
       <r>   11.1944    0.0000 </r>
       <r>   11.2529    0.0000 </r>
       <r>   11.3467    0.0000 </r>
       <r>   11.3682    0.0000 </r>
       <r>   11.4648    0.0000 </r>
      </set>
     </set>
    </set>
   </array>
  </eigenvalues>
  <separator name="orbital magnetization" >
   <v name="MAGDIPOLOUT">      0.00000000      0.00000000      0.00000000</v>
  </separator>
  <dos>
   <i name="efermi">      8.01270554 </i>
   <total>
    <array>
     <dimension dim="1">gridpoints</dimension>
     <dimension dim="2">spin</dimension>
     <field>energy</field>
     <field>total</field>
     <field>integrated</field>
     <set>
      <set comment="spin 1">
       <r>    -3.9089     0.0000     0.0000 </r>
       <r>    -3.8540     0.0000     0.0000 </r>
       <r>    -3.7991     0.0000     0.0000 </r>
       <r>    -3.7443     0.0000     0.0000 </r>
       <r>    -3.6894     0.0000     0.0000 </r>
       <r>    -3.6345     0.0000     0.0000 </r>
       <r>    -3.5797     0.0000     0.0000 </r>
       <r>    -3.5248     0.0000     0.0000 </r>
       <r>    -3.4699     0.0000     0.0000 </r>
       <r>    -3.4151     0.0000     0.0000 </r>
       <r>    -3.3602     0.0000     0.0000 </r>
       <r>    -3.3053     0.0000     0.0000 </r>
       <r>    -3.2505     0.0004     0.0000 </r>
       <r>    -3.1956     0.0224     0.0013 </r>
       <r>    -3.1407     0.2476     0.0148 </r>
       <r>    -3.0858     0.7323     0.0550 </r>
       <r>    -3.0310     1.1713     0.1193 </r>
       <r>    -2.9761     1.5328     0.2034 </r>
       <r>    -2.9212     1.5365     0.2877 </r>
       <r>    -2.8664     2.1470     0.4055 </r>
       <r>    -2.8115     2.0899     0.5202 </r>
       <r>    -2.7566     2.3364     0.6483 </r>
       <r>    -2.7018     2.2332     0.7709 </r>
       <r>    -2.6469     3.0373     0.9375 </r>
       <r>    -2.5920     3.0928     1.1072 </r>
       <r>    -2.5372     2.5418     1.2467 </r>
       <r>    -2.4823     2.2804     1.3718 </r>
       <r>    -2.4274     3.3960     1.5581 </r>
       <r>    -2.3726     3.5250     1.7515 </r>
       <r>    -2.3177     3.4881     1.9429 </r>
       <r>    -2.2628     3.0118     2.1082 </r>
       <r>    -2.2080     3.4835     2.2993 </r>
       <r>    -2.1531     3.8179     2.5088 </r>
       <r>    -2.0982     3.5959     2.7061 </r>
       <r>    -2.0434     4.2841     2.9411 </r>
       <r>    -1.9885     4.4022     3.1827 </r>
       <r>    -1.9336     4.2901     3.4180 </r>
       <r>    -1.8788     3.4816     3.6091 </r>
       <r>    -1.8239     3.3421     3.7924 </r>
       <r>    -1.7690     3.8055     4.0012 </r>
       <r>    -1.7142     5.6624     4.3119 </r>
       <r>    -1.6593     5.4514     4.6110 </r>
       <r>    -1.6044     4.5575     4.8611 </r>
       <r>    -1.5496     3.8932     5.0747 </r>
       <r>    -1.4947     4.4895     5.3210 </r>
       <r>    -1.4398     4.3794     5.5613 </r>
       <r>    -1.3850     4.9542     5.8331 </r>
       <r>    -1.3301     5.8450     6.1538 </r>
       <r>    -1.2752     5.9156     6.4784 </r>
       <r>    -1.2204     4.4852     6.7245 </r>
       <r>    -1.1655     4.0923     6.9490 </r>
       <r>    -1.1106     5.7173     7.2627 </r>
       <r>    -1.0558     6.3593     7.6116 </r>
       <r>    -1.0009     5.6539     7.9218 </r>
       <r>    -0.9460     4.6704     8.1781 </r>
       <r>    -0.8912     4.7043     8.4362 </r>
       <r>    -0.8363     5.6371     8.7455 </r>
       <r>    -0.7814     6.1441     9.0826 </r>
       <r>    -0.7266     6.7089     9.4507 </r>
       <r>    -0.6717     7.6091     9.8682 </r>
       <r>    -0.6168     5.4289    10.1661 </r>
       <r>    -0.5620     5.2630    10.4548 </r>
       <r>    -0.5071     4.5847    10.7064 </r>
       <r>    -0.4522     5.1252    10.9876 </r>
       <r>    -0.3974     7.8403    11.4178 </r>
       <r>    -0.3425     7.5299    11.8309 </r>
       <r>    -0.2876     6.8320    12.2057 </r>
       <r>    -0.2328     5.9788    12.5338 </r>
       <r>    -0.1779     6.1875    12.8733 </r>
       <r>    -0.1230     6.2065    13.2138 </r>
       <r>    -0.0682     6.0800    13.5474 </r>
       <r>    -0.0133     6.8204    13.9216 </r>
       <r>     0.0416     7.3738    14.3262 </r>
       <r>     0.0964     6.8973    14.7046 </r>
       <r>     0.1513     6.4988    15.0612 </r>
       <r>     0.2062     6.7671    15.4325 </r>
       <r>     0.2610     7.0123    15.8172 </r>
       <r>     0.3159     6.5817    16.1784 </r>
       <r>     0.3708     6.7373    16.5480 </r>
       <r>     0.4256     7.1511    16.9404 </r>
       <r>     0.4805     8.3035    17.3960 </r>
       <r>     0.5354     7.6576    17.8161 </r>
       <r>     0.5902     7.1167    18.2066 </r>
       <r>     0.6451     6.6890    18.5736 </r>
       <r>     0.7000     7.2665    18.9723 </r>
       <r>     0.7548     6.7554    19.3429 </r>
       <r>     0.8097     6.4217    19.6953 </r>
       <r>     0.8646     7.3469    20.0984 </r>
       <r>     0.9194     8.1481    20.5454 </r>
       <r>     0.9743     8.6120    21.0180 </r>
       <r>     1.0292     9.0253    21.5132 </r>
       <r>     1.0840     8.6770    21.9892 </r>
       <r>     1.1389     7.5021    22.4009 </r>
       <r>     1.1938     6.7310    22.7702 </r>
       <r>     1.2487     7.3182    23.1717 </r>
       <r>     1.3035     7.7978    23.5995 </r>
       <r>     1.3584     8.9262    24.0893 </r>
       <r>     1.4133     7.8775    24.5215 </r>
       <r>     1.4681     6.6218    24.8848 </r>
       <r>     1.5230     8.5388    25.3533 </r>
       <r>     1.5779    10.0479    25.9046 </r>
       <r>     1.6327     9.1240    26.4052 </r>
       <r>     1.6876     7.1480    26.7974 </r>
       <r>     1.7425     6.6641    27.1631 </r>
       <r>     1.7973     9.2010    27.6679 </r>
       <r>     1.8522     9.8817    28.2101 </r>
       <r>     1.9071     9.7605    28.7456 </r>
       <r>     1.9619    10.4278    29.3177 </r>
       <r>     2.0168     8.2915    29.7727 </r>
       <r>     2.0717     6.4257    30.1252 </r>
       <r>     2.1265     6.2558    30.4685 </r>
       <r>     2.1814     8.4113    30.9300 </r>
       <r>     2.2363    10.2414    31.4919 </r>
       <r>     2.2911    10.1849    32.0507 </r>
       <r>     2.3460     9.3166    32.5619 </r>
       <r>     2.4009     7.4493    32.9706 </r>
       <r>     2.4557     9.3830    33.4854 </r>
       <r>     2.5106    11.7947    34.1326 </r>
       <r>     2.5655     9.8326    34.6720 </r>
       <r>     2.6203     8.9740    35.1644 </r>
       <r>     2.6752     9.8904    35.7071 </r>
       <r>     2.7301     8.8591    36.1931 </r>
       <r>     2.7849     7.9596    36.6299 </r>
       <r>     2.8398     8.7369    37.1092 </r>
       <r>     2.8947     9.4044    37.6252 </r>
       <r>     2.9495     8.3957    38.0859 </r>
       <r>     3.0044     8.5456    38.5547 </r>
       <r>     3.0593    10.4034    39.1256 </r>
       <r>     3.1141    11.7918    39.7725 </r>
       <r>     3.1690    10.8149    40.3659 </r>
       <r>     3.2239    11.2766    40.9846 </r>
       <r>     3.2787    11.0537    41.5911 </r>
       <r>     3.3336     9.5344    42.1142 </r>
       <r>     3.3885     8.1599    42.5619 </r>
       <r>     3.4433     8.7621    43.0427 </r>
       <r>     3.4982     9.8326    43.5822 </r>
       <r>     3.5531    10.9206    44.1814 </r>
       <r>     3.6079    10.6918    44.7680 </r>
       <r>     3.6628    10.8014    45.3606 </r>
       <r>     3.7177    10.5296    45.9384 </r>
       <r>     3.7725     9.5188    46.4606 </r>
       <r>     3.8274     8.5064    46.9273 </r>
       <r>     3.8823     8.9140    47.4164 </r>
       <r>     3.9371    11.8256    48.0653 </r>
       <r>     3.9920    12.2578    48.7378 </r>
       <r>     4.0469    11.1703    49.3507 </r>
       <r>     4.1017    10.7979    49.9431 </r>
       <r>     4.1566    10.5923    50.5243 </r>
       <r>     4.2115    10.9626    51.1258 </r>
       <r>     4.2663    10.2233    51.6867 </r>
       <r>     4.3212    12.2351    52.3580 </r>
       <r>     4.3761    12.1512    53.0247 </r>
       <r>     4.4309     9.8527    53.5653 </r>
       <r>     4.4858     9.6472    54.0946 </r>
       <r>     4.5407     8.7893    54.5769 </r>
       <r>     4.5955     9.7651    55.1126 </r>
       <r>     4.6504    10.9843    55.7153 </r>
       <r>     4.7053    12.1342    56.3811 </r>
       <r>     4.7601    13.9988    57.1492 </r>
       <r>     4.8150    12.5197    57.8361 </r>
       <r>     4.8699    12.2648    58.5090 </r>
       <r>     4.9247    13.3716    59.2427 </r>
       <r>     4.9796    11.1939    59.8569 </r>
       <r>     5.0345    10.0391    60.4077 </r>
       <r>     5.0893    10.8340    61.0021 </r>
       <r>     5.1442    12.4397    61.6846 </r>
       <r>     5.1991    12.2275    62.3555 </r>
       <r>     5.2539    12.6460    63.0494 </r>
       <r>     5.3088    11.7761    63.6955 </r>
       <r>     5.3637    12.8180    64.3988 </r>
       <r>     5.4186    12.5462    65.0871 </r>
       <r>     5.4734    10.8095    65.6802 </r>
       <r>     5.5283    10.7343    66.2692 </r>
       <r>     5.5832    13.0044    66.9827 </r>
       <r>     5.6380    13.3634    67.7159 </r>
       <r>     5.6929    12.2337    68.3871 </r>
       <r>     5.7478    11.5379    69.0202 </r>
       <r>     5.8026     9.9725    69.5674 </r>
       <r>     5.8575    10.3288    70.1341 </r>
       <r>     5.9124    13.1101    70.8534 </r>
       <r>     5.9672    11.2878    71.4727 </r>
       <r>     6.0221     9.3329    71.9848 </r>
       <r>     6.0770    10.6516    72.5692 </r>
       <r>     6.1318    12.4683    73.2533 </r>
       <r>     6.1867    12.4358    73.9356 </r>
       <r>     6.2416    10.6498    74.5199 </r>
       <r>     6.2964    11.4308    75.1471 </r>
       <r>     6.3513    12.0276    75.8070 </r>
       <r>     6.4062    12.3938    76.4870 </r>
       <r>     6.4610    12.5877    77.1777 </r>
       <r>     6.5159    10.8792    77.7746 </r>
       <r>     6.5708     9.7222    78.3080 </r>
       <r>     6.6256    11.0689    78.9154 </r>
       <r>     6.6805    11.2851    79.5345 </r>
       <r>     6.7354    11.2963    80.1543 </r>
       <r>     6.7902    11.3844    80.7790 </r>
       <r>     6.8451    12.8504    81.4840 </r>
       <r>     6.9000    13.7839    82.2403 </r>
       <r>     6.9548    13.2436    82.9669 </r>
       <r>     7.0097    14.1988    83.7460 </r>
       <r>     7.0646    13.0250    84.4606 </r>
       <r>     7.1194    11.5633    85.0951 </r>
       <r>     7.1743    12.9921    85.8079 </r>
       <r>     7.2292    12.1165    86.4727 </r>
       <r>     7.2840    10.8859    87.0700 </r>
       <r>     7.3389    13.5747    87.8148 </r>
       <r>     7.3938    13.2380    88.5411 </r>
       <r>     7.4486     9.9862    89.0890 </r>
       <r>     7.5035    11.4000    89.7145 </r>
       <r>     7.5584    12.5974    90.4057 </r>
       <r>     7.6132    12.1670    91.0733 </r>
       <r>     7.6681    13.8323    91.8322 </r>
       <r>     7.7230    12.9827    92.5445 </r>
       <r>     7.7778    10.5548    93.1237 </r>
       <r>     7.8327     9.6275    93.6519 </r>
       <r>     7.8876    12.4372    94.3343 </r>
       <r>     7.9424    13.5876    95.0798 </r>
       <r>     7.9973    13.1919    95.8036 </r>
       <r>     8.0522    12.7212    96.5016 </r>
       <r>     8.1070    13.9972    97.2696 </r>
       <r>     8.1619    14.7482    98.0787 </r>
       <r>     8.2168    12.6938    98.7752 </r>
       <r>     8.2716    13.6212    99.5226 </r>
       <r>     8.3265    15.4502   100.3703 </r>
       <r>     8.3814    15.1894   101.2037 </r>
       <r>     8.4362    14.1206   101.9784 </r>
       <r>     8.4911    12.9443   102.6887 </r>
       <r>     8.5460    12.5676   103.3782 </r>
       <r>     8.6008    11.9981   104.0365 </r>
       <r>     8.6557    10.8646   104.6326 </r>
       <r>     8.7106    11.7995   105.2800 </r>
       <r>     8.7654    12.1946   105.9491 </r>
       <r>     8.8203    12.2532   106.6214 </r>
       <r>     8.8752    12.7789   107.3225 </r>
       <r>     8.9300    13.7496   108.0769 </r>
       <r>     8.9849    15.5966   108.9327 </r>
       <r>     9.0398    16.5162   109.8389 </r>
       <r>     9.0946    15.2920   110.6779 </r>
       <r>     9.1495    15.4505   111.5256 </r>
       <r>     9.2044    15.0683   112.3524 </r>
       <r>     9.2592    13.7714   113.1080 </r>
       <r>     9.3141    13.2530   113.8351 </r>
       <r>     9.3690    12.4030   114.5157 </r>
       <r>     9.4238    11.5138   115.1474 </r>
       <r>     9.4787    12.1191   115.8123 </r>
       <r>     9.5336    12.5200   116.4993 </r>
       <r>     9.5885    13.0293   117.2141 </r>
       <r>     9.6433    12.9615   117.9253 </r>
       <r>     9.6982    13.0043   118.6388 </r>
       <r>     9.7531    15.4749   119.4879 </r>
       <r>     9.8079    16.5657   120.3968 </r>
       <r>     9.8628    16.2682   121.2894 </r>
       <r>     9.9177    14.6567   122.0935 </r>
       <r>     9.9725    14.4937   122.8888 </r>
       <r>    10.0274    15.9670   123.7648 </r>
       <r>    10.0823    14.6929   124.5710 </r>
       <r>    10.1371    11.2506   125.1883 </r>
       <r>    10.1920    12.2410   125.8599 </r>
       <r>    10.2469    15.0273   126.6844 </r>
       <r>    10.3017    13.7912   127.4411 </r>
       <r>    10.3566    12.8148   128.1442 </r>
       <r>    10.4115    14.2009   128.9234 </r>
       <r>    10.4663    17.6295   129.8906 </r>
       <r>    10.5212    16.2275   130.7810 </r>
       <r>    10.5761    14.2881   131.5649 </r>
       <r>    10.6309    15.3107   132.4050 </r>
       <r>    10.6858    15.0824   133.2325 </r>
       <r>    10.7407    14.9862   134.0548 </r>
       <r>    10.7955    13.6057   134.8013 </r>
       <r>    10.8504    12.5443   135.4896 </r>
       <r>    10.9053    14.1753   136.2673 </r>
       <r>    10.9601    13.3443   136.9995 </r>
       <r>    11.0150    12.4685   137.6836 </r>
       <r>    11.0699    13.0992   138.4023 </r>
       <r>    11.1247    12.8175   139.1056 </r>
       <r>    11.1796    11.5880   139.7413 </r>
       <r>    11.2345    10.7569   140.3315 </r>
       <r>    11.2893    11.9201   140.9856 </r>
       <r>    11.3442    11.1618   141.5980 </r>
       <r>    11.3991    11.4511   142.2263 </r>
       <r>    11.4539    10.0990   142.7804 </r>
       <r>    11.5088     6.0088   143.1101 </r>
       <r>    11.5637     4.5182   143.3580 </r>
       <r>    11.6185     4.8142   143.6221 </r>
       <r>    11.6734     3.6862   143.8244 </r>
       <r>    11.7283     2.2010   143.9451 </r>
       <r>    11.7831     0.8151   143.9898 </r>
       <r>    11.8380     0.1648   143.9989 </r>
       <r>    11.8929     0.0197   144.0000 </r>
       <r>    11.9477     0.0006   144.0000 </r>
       <r>    12.0026     0.0000   144.0000 </r>
       <r>    12.0575     0.0000   144.0000 </r>
       <r>    12.1123     0.0000   144.0000 </r>
       <r>    12.1672     0.0000   144.0000 </r>
       <r>    12.2221     0.0000   144.0000 </r>
       <r>    12.2769     0.0000   144.0000 </r>
       <r>    12.3318     0.0000   144.0000 </r>
       <r>    12.3867     0.0000   144.0000 </r>
       <r>    12.4415     0.0000   144.0000 </r>
       <r>    12.4964     0.0000   144.0000 </r>
       <r>    12.5513     0.0000   144.0000 </r>
      </set>
     </set>
    </array>
   </total>
  </dos>
 </calculation>
 <structure name="finalpos" >
  <crystal>
   <varray name="basis" >
    <v>       8.07809510       0.00000000       0.00000000 </v>
    <v>       0.00000000       8.07809510       0.00000000 </v>
    <v>       0.00000000       0.00000000       8.07809510 </v>
   </varray>
   <i name="volume">    527.14110776 </i>
   <varray name="rec_basis" >
    <v>       0.12379156       0.00000000       0.00000000 </v>
    <v>       0.00000000       0.12379156       0.00000000 </v>
    <v>       0.00000000       0.00000000       0.12379156 </v>
   </varray>
  </crystal>
  <varray name="positions" >
   <v>       0.99765019       0.97923285       0.00685472 </v>
   <v>       0.00801125       0.27231414       0.24612037 </v>
   <v>       0.23666827       0.00354353       0.24676044 </v>
   <v>       0.23450507       0.24347116       0.99290820 </v>
   <v>       0.99949834       0.99790840       0.50874701 </v>
   <v>       0.00047543       0.23542294       0.76405309 </v>
   <v>       0.24715283       0.98929324       0.73521507 </v>
   <v>       0.25767234       0.23262121       0.49145450 </v>
   <v>       0.99572951       0.52330238       0.98787088 </v>
   <v>       0.99885652       0.75105918       0.24285980 </v>
   <v>       0.25490350       0.52002943       0.23472961 </v>
   <v>       0.26612279       0.74704601       0.98505751 </v>
   <v>       0.00326913       0.50784342       0.50059532 </v>
   <v>       0.00506060       0.75088248       0.76310674 </v>
   <v>       0.23499134       0.49272835       0.75249110 </v>
   <v>       0.25226438       0.75086550       0.47943464 </v>
   <v>       0.49032360       0.02067436       0.98924027 </v>
   <v>       0.49205350       0.25349914       0.25193339 </v>
   <v>       0.75634601       0.98470287       0.24115949 </v>
   <v>       0.75666360       0.24113260       0.00532538 </v>
   <v>       0.50480294       0.98561484       0.50740545 </v>
   <v>       0.49708019       0.25595026       0.73696125 </v>
   <v>       0.74054065       0.01686135       0.75568510 </v>
   <v>       0.75698444       0.25544679       0.50269806 </v>
   <v>       0.50645806       0.48160520       0.99499473 </v>
   <v>       0.50322618       0.74057095       0.25178967 </v>
   <v>       0.75209660       0.48125973       0.23197751 </v>
   <v>       0.72313731       0.75447777       0.00005983 </v>
   <v>       0.51163081       0.50924259       0.49852577 </v>
   <v>       0.49507667       0.74093482       0.74852432 </v>
   <v>       0.75530233       0.50481877       0.75474169 </v>
   <v>       0.75606169       0.74301582       0.50012104 </v>
  </varray>
 </structure>
</modeling>
