<?xml version="1.0" encoding="ISO-8859-1"?>
<modeling>
 <generator>
  <i name="program" type="string">vasp </i>
  <i name="version" type="string">5.4.4.18Apr17-6-g9f103f2a35  </i>
  <i name="subversion" type="string">(build Oct  7 2019 15:10:45) complex            parallel </i>
  <i name="platform" type="string">LinuxGNU </i>
  <i name="date" type="string">2021 11 10 </i>
  <i name="time" type="string">03:25:41 </i>
 </generator>
 <incar>
  <i type="string" name="SYSTEM">mos2</i>
  <i type="int" name="ISTART">     0</i>
  <i type="string" name="PREC">accurate</i>
  <i type="string" name="ALGO"> Normal</i>
  <i type="int" name="NSIM">     4</i>
  <i type="int" name="NELM">  1000</i>
  <i type="int" name="NELMIN">     2</i>
  <i type="int" name="IBRION">    -1</i>
  <i name="EDIFF">      0.00000100</i>
  <i type="int" name="NSW">     0</i>
  <i name="ENCUT">    600.00000000</i>
  <i type="string" name="LREAL"> Auto</i>
  <i type="int" name="ISMEAR">     0</i>
  <i name="SIGMA">      0.05000000</i>
  <i type="logical" name="LWAVE"> F  </i>
  <i type="logical" name="LCHARG"> T  </i>
  <v type="int" name="KPOINT_BSE">    -1     0     0     0</v>
  <i type="int" name="NELM">  1000</i>
 </incar>
 <structure name="primitive_cell" >
  <crystal>
   <varray name="basis" >
    <v>       9.55219900       0.00000000       0.00000000 </v>
    <v>      -4.77610000       8.27244700       0.00000000 </v>
    <v>       0.00000000       0.00000000      18.12711300 </v>
   </varray>
   <i name="volume">   1432.40555618 </i>
   <varray name="rec_basis" >
    <v>       0.10468794       0.06044161      -0.00000000 </v>
    <v>       0.00000000       0.12088322       0.00000000 </v>
    <v>       0.00000000      -0.00000000       0.05516598 </v>
   </varray>
  </crystal>
  <varray name="positions" >
   <v>       0.00113632       0.00177469      -0.49904968 </v>
   <v>       0.22364900       0.11439612       0.41635080 </v>
   <v>      -0.10957287       0.11141482       0.41493798 </v>
   <v>      -0.10578101      -0.22289341      -0.41413248 </v>
   <v>      -0.11045618      -0.22081898       0.41371616 </v>
   <v>       0.22933204       0.12157827      -0.41471082 </v>
   <v>      -0.11306121       0.10972217      -0.41117709 </v>
   <v>      -0.32954305       0.00128385       0.49874280 </v>
   <v>       0.33138792      -0.00218672      -0.49997647 </v>
   <v>      -0.33120265      -0.33283538      -0.49758147 </v>
   <v>      -0.00681728       0.33187865       0.49898755 </v>
   <v>       0.33526567       0.33989951       0.49796008 </v>
   <v>       0.00388098      -0.33517880      -0.49983368 </v>
   <v>       0.21936936       0.44263474      -0.41345273 </v>
   <v>       0.21641781       0.44246494       0.41326659 </v>
   <v>      -0.44243903      -0.22231290      -0.41266992 </v>
   <v>       0.22451771      -0.22277799       0.41703288 </v>
   <v>       0.22754913      -0.22458844      -0.41640396 </v>
   <v>      -0.44923888      -0.23264434       0.41430953 </v>
   <v>      -0.44931757       0.11094319      -0.41785436 </v>
   <v>      -0.11400575       0.44112557      -0.41549047 </v>
   <v>      -0.11560528       0.43960655       0.41497557 </v>
   <v>      -0.44450359       0.45179071       0.41288293 </v>
   <v>      -0.44713447       0.11258065       0.41196793 </v>
   <v>      -0.44456372       0.44667788      -0.41335598 </v>
   <v>      -0.33843069       0.33207911       0.49887519 </v>
   <v>       0.33594195      -0.33634710      -0.49818870 </v>
  </varray>
 </structure>
 <varray name="primitive_index" >
  <v type="int" >        1 </v>
  <v type="int" >       12 </v>
  <v type="int" >       23 </v>
  <v type="int" >       26 </v>
  <v type="int" >       27 </v>
  <v type="int" >       11 </v>
  <v type="int" >       22 </v>
  <v type="int" >        3 </v>
  <v type="int" >        4 </v>
  <v type="int" >        8 </v>
  <v type="int" >        7 </v>
  <v type="int" >        2 </v>
  <v type="int" >        9 </v>
  <v type="int" >       13 </v>
  <v type="int" >       14 </v>
  <v type="int" >       20 </v>
  <v type="int" >       16 </v>
  <v type="int" >       15 </v>
  <v type="int" >       18 </v>
  <v type="int" >       10 </v>
  <v type="int" >       24 </v>
  <v type="int" >       25 </v>
  <v type="int" >       21 </v>
  <v type="int" >       17 </v>
  <v type="int" >       19 </v>
  <v type="int" >        6 </v>
  <v type="int" >        5 </v>
 </varray>
 <kpoints>
  <generation param="Gamma">
   <v type="int" name="divisions">       6        6        1 </v>
   <v name="usershift">      0.00000000       0.00000000       0.00000000 </v>
   <v name="genvec1">      0.16666667       0.00000000       0.00000000 </v>
   <v name="genvec2">      0.00000000       0.16666667       0.00000000 </v>
   <v name="genvec3">      0.00000000       0.00000000       1.00000000 </v>
   <v name="shift">      0.00000000       0.00000000       0.00000000 </v>
  </generation>
  <varray name="kpointlist" >
   <v>       0.00000000       0.00000000       0.00000000 </v>
   <v>       0.16666667       0.00000000       0.00000000 </v>
   <v>       0.33333333       0.00000000       0.00000000 </v>
   <v>       0.50000000       0.00000000       0.00000000 </v>
   <v>       0.00000000       0.16666667       0.00000000 </v>
   <v>       0.16666667       0.16666667       0.00000000 </v>
   <v>       0.33333333       0.16666667       0.00000000 </v>
   <v>       0.50000000       0.16666667       0.00000000 </v>
   <v>      -0.33333333       0.16666667       0.00000000 </v>
   <v>      -0.16666667       0.16666667       0.00000000 </v>
   <v>       0.00000000       0.33333333       0.00000000 </v>
   <v>       0.16666667       0.33333333       0.00000000 </v>
   <v>       0.33333333       0.33333333       0.00000000 </v>
   <v>       0.50000000       0.33333333       0.00000000 </v>
   <v>      -0.33333333       0.33333333       0.00000000 </v>
   <v>      -0.16666667       0.33333333       0.00000000 </v>
   <v>       0.00000000       0.50000000       0.00000000 </v>
   <v>       0.16666667       0.50000000       0.00000000 </v>
   <v>       0.33333333       0.50000000       0.00000000 </v>
   <v>       0.50000000       0.50000000       0.00000000 </v>
  </varray>
  <varray name="weights" >
   <v>       0.02777778 </v>
   <v>       0.05555556 </v>
   <v>       0.05555556 </v>
   <v>       0.02777778 </v>
   <v>       0.05555556 </v>
   <v>       0.05555556 </v>
   <v>       0.05555556 </v>
   <v>       0.05555556 </v>
   <v>       0.05555556 </v>
   <v>       0.05555556 </v>
   <v>       0.05555556 </v>
   <v>       0.05555556 </v>
   <v>       0.05555556 </v>
   <v>       0.05555556 </v>
   <v>       0.05555556 </v>
   <v>       0.05555556 </v>
   <v>       0.02777778 </v>
   <v>       0.05555556 </v>
   <v>       0.05555556 </v>
   <v>       0.02777778 </v>
  </varray>
 </kpoints>
 <parameters>
  <separator name="general" >
   <i type="string" name="SYSTEM">mos2</i>
   <i type="logical" name="LCOMPAT"> F  </i>
  </separator>
  <separator name="electronic" >
   <i type="string" name="PREC">accura</i>
   <i name="ENMAX">    600.00000000</i>
   <i name="ENAUG">    446.01400000</i>
   <i name="EDIFF">      0.00000100</i>
   <i type="int" name="IALGO">    38</i>
   <i type="int" name="IWAVPR">    10</i>
   <i type="int" name="NBANDS">   140</i>
   <i name="NELECT">    234.00000000</i>
   <i type="int" name="TURBO">     0</i>
   <i type="int" name="IRESTART">     0</i>
   <i type="int" name="NREBOOT">     0</i>
   <i type="int" name="NMIN">     0</i>
   <i name="EREF">      0.00000000</i>
   <separator name="electronic smearing" >
    <i type="int" name="ISMEAR">     0</i>
    <i name="SIGMA">      0.05000000</i>
    <i name="KSPACING">      0.50000000</i>
    <i type="logical" name="KGAMMA"> T  </i>
   </separator>
   <separator name="electronic projectors" >
    <i type="logical" name="LREAL"> T  </i>
    <v name="ROPT">     -0.00025000     -0.00025000</v>
    <i type="int" name="LMAXPAW">  -100</i>
    <i type="int" name="LMAXMIX">     2</i>
    <i type="logical" name="NLSPLINE"> F  </i>
   </separator>
   <separator name="electronic startup" >
    <i type="int" name="ISTART">     0</i>
    <i type="int" name="ICHARG">     2</i>
    <i type="int" name="INIWAV">     1</i>
   </separator>
   <separator name="electronic spin" >
    <i type="int" name="ISPIN">     1</i>
    <i type="logical" name="LNONCOLLINEAR"> F  </i>
    <v name="MAGMOM">      1.00000000      1.00000000      1.00000000      1.00000000      1.00000000      1.00000000      1.00000000      1.00000000      1.00000000      1.00000000      1.00000000      1.00000000      1.00000000      1.00000000      1.00000000      1.00000000      1.00000000      1.00000000      1.00000000      1.00000000
      1.00000000      1.00000000      1.00000000      1.00000000      1.00000000      1.00000000      1.00000000</v>
    <i name="NUPDOWN">     -1.00000000</i>
    <i type="logical" name="LSORBIT"> F  </i>
    <v name="SAXIS">      0.00000000      0.00000000      1.00000000</v>
    <i type="logical" name="LSPIRAL"> F  </i>
    <v name="QSPIRAL">      0.00000000      0.00000000      0.00000000</v>
    <i type="logical" name="LZEROZ"> F  </i>
   </separator>
   <separator name="electronic exchange-correlation" >
    <i type="logical" name="LASPH"> F  </i>
    <i type="logical" name="LMETAGGA"> F  </i>
   </separator>
   <separator name="electronic convergence" >
    <i type="int" name="NELM">  1000</i>
    <i type="int" name="NELMDL">    -5</i>
    <i type="int" name="NELMIN">     2</i>
    <i name="ENINI">    600.00000000</i>
    <separator name="electronic convergence detail" >
     <i type="logical" name="LDIAG"> T  </i>
     <i type="logical" name="LSUBROT"> F  </i>
     <i name="WEIMIN">      0.00000000</i>
     <i name="EBREAK">      0.00000000</i>
     <i name="DEPER">      0.30000000</i>
     <i type="int" name="NRMM">     4</i>
     <i name="TIME">      0.40000000</i>
    </separator>
   </separator>
   <separator name="electronic mixer" >
    <i name="AMIX">      0.40000000</i>
    <i name="BMIX">      1.00000000</i>
    <i name="AMIN">      0.10000000</i>
    <i name="AMIX_MAG">      1.60000000</i>
    <i name="BMIX_MAG">      1.00000000</i>
    <separator name="electronic mixer details" >
     <i type="int" name="IMIX">     4</i>
     <i type="logical" name="MIXFIRST"> F  </i>
     <i type="int" name="MAXMIX">   -45</i>
     <i name="WC">    100.00000000</i>
     <i type="int" name="INIMIX">     1</i>
     <i type="int" name="MIXPRE">     1</i>
     <i type="int" name="MREMOVE">     5</i>
    </separator>
   </separator>
   <separator name="electronic dipolcorrection" >
    <i type="logical" name="LDIPOL"> F  </i>
    <i type="logical" name="LMONO"> F  </i>
    <i type="int" name="IDIPOL">     0</i>
    <i name="EPSILON">      1.00000000</i>
    <v name="DIPOL">   -100.00000000   -100.00000000   -100.00000000</v>
    <i name="EFIELD">      0.00000000</i>
   </separator>
  </separator>
  <separator name="grids" >
   <i type="int" name="NGX">    80</i>
   <i type="int" name="NGY">    80</i>
   <i type="int" name="NGZ">   150</i>
   <i type="int" name="NGXF">   160</i>
   <i type="int" name="NGYF">   160</i>
   <i type="int" name="NGZF">   300</i>
   <i type="logical" name="ADDGRID"> F  </i>
  </separator>
  <separator name="ionic" >
   <i type="int" name="NSW">     0</i>
   <i type="int" name="IBRION">    -1</i>
   <i type="int" name="MDALGO">     0</i>
   <i type="int" name="ISIF">     2</i>
   <i name="PSTRESS">      0.00000000</i>
   <i name="EDIFFG">      0.00001000</i>
   <i type="int" name="NFREE">     0</i>
   <i name="POTIM">      0.50000000</i>
   <i name="SMASS">     -3.00000000</i>
   <i name="SCALEE">      1.00000000</i>
  </separator>
  <separator name="ionic md" >
   <i name="TEBEG">      0.00010000</i>
   <i name="TEEND">      0.00010000</i>
   <i type="int" name="NBLOCK">     1</i>
   <i type="int" name="KBLOCK">     1</i>
   <i type="int" name="NPACO">   256</i>
   <i name="APACO">     16.00000000</i>
  </separator>
  <separator name="symmetry" >
   <i type="int" name="ISYM">     2</i>
   <i name="SYMPREC">      0.00001000</i>
  </separator>
  <separator name="dos" >
   <i type="int" name="LORBIT">     0</i>
   <v name="RWIGS">     -1.00000000     -1.00000000</v>
   <i type="int" name="NEDOS">   301</i>
   <i name="EMIN">     10.00000000</i>
   <i name="EMAX">    -10.00000000</i>
   <i name="EFERMI">      0.00000000</i>
  </separator>
  <separator name="writing" >
   <i type="int" name="NWRITE">     2</i>
   <i type="logical" name="LWAVE"> F  </i>
   <i type="logical" name="LDOWNSAMPLE"> F  </i>
   <i type="logical" name="LCHARG"> T  </i>
   <i type="logical" name="LPARD"> F  </i>
   <i type="logical" name="LVTOT"> F  </i>
   <i type="logical" name="LVHAR"> F  </i>
   <i type="logical" name="LELF"> F  </i>
   <i type="logical" name="LOPTICS"> F  </i>
   <v name="STM">      0.00000000      0.00000000      0.00000000      0.00000000      0.00000000      0.00000000      0.00000000</v>
  </separator>
  <separator name="performance" >
   <i type="int" name="NPAR">     4</i>
   <i type="int" name="NSIM">     4</i>
   <i type="int" name="NBLK">    -1</i>
   <i type="logical" name="LPLANE"> T  </i>
   <i type="logical" name="LSCALAPACK"> T  </i>
   <i type="logical" name="LSCAAWARE"> F  </i>
   <i type="logical" name="LSCALU"> F  </i>
   <i type="logical" name="LASYNC"> F  </i>
   <i type="logical" name="LORBITALREAL"> F  </i>
  </separator>
  <separator name="miscellaneous" >
   <i type="int" name="IDIOT">     3</i>
   <i type="int" name="ISPECIAL">     0</i>
   <i type="logical" name="LMUSIC"> F  </i>
   <v name="POMASS">     95.94000000     32.06600000</v>
   <v name="DARWINR">      0.00000000      0.00000000</v>
   <v name="DARWINV">      1.00000000      1.00000000</v>
   <i type="logical" name="LCORR"> T  </i>
  </separator>
  <i type="logical" name="GGA_COMPAT"> T  </i>
  <i type="logical" name="LBERRY"> F  </i>
  <i type="int" name="ICORELEVEL">     0</i>
  <i type="logical" name="LDAU"> F  </i>
  <i type="int" name="I_CONSTRAINED_M">     0</i>
  <separator name="electronic exchange-correlation" >
   <i type="string" name="GGA">--</i>
   <i type="int" name="VOSKOWN">     0</i>
   <i type="logical" name="LHFCALC"> F  </i>
   <i type="string" name="PRECFOCK"></i>
   <i type="logical" name="LSYMGRAD"> F  </i>
   <i type="logical" name="LHFONE"> F  </i>
   <i type="logical" name="LRHFCALC"> F  </i>
   <i type="logical" name="LTHOMAS"> F  </i>
   <i type="logical" name="LMODELHF"> F  </i>
   <i name="ENCUT4O">     -1.00000000</i>
   <i type="int" name="EXXOEP">     0</i>
   <i type="int" name="FOURORBIT">     0</i>
   <i name="AEXX">      0.00000000</i>
   <i name="HFALPHA">      0.00000000</i>
   <i name="MCALPHA">      0.00000000</i>
   <i name="ALDAX">      1.00000000</i>
   <i name="AGGAX">      1.00000000</i>
   <i name="ALDAC">      1.00000000</i>
   <i name="AGGAC">      1.00000000</i>
   <i type="int" name="NKREDX">     1</i>
   <i type="int" name="NKREDY">     1</i>
   <i type="int" name="NKREDZ">     1</i>
   <i type="logical" name="SHIFTRED"> F  </i>
   <i type="logical" name="ODDONLY"> F  </i>
   <i type="logical" name="EVENONLY"> F  </i>
   <i type="int" name="LMAXFOCK">     0</i>
   <i type="int" name="NMAXFOCKAE">     0</i>
   <i type="logical" name="LFOCKAEDFT"> F  </i>
   <i name="HFSCREEN">      0.00000000</i>
   <i name="HFSCREENC">      0.00000000</i>
   <i type="int" name="NBANDSGWLOW">     0</i>
  </separator>
  <separator name="vdW DFT" >
   <i type="logical" name="LUSE_VDW"> F  </i>
   <i name="Zab_VDW">     -0.84910000</i>
   <i name="PARAM1">      0.12340000</i>
   <i name="PARAM2">      1.00000000</i>
   <i name="PARAM3">      0.00000000</i>
  </separator>
  <separator name="model GW" >
   <i type="int" name="MODEL_GW">     0</i>
   <i name="MODEL_EPS0">     31.83123458</i>
   <i name="MODEL_ALPHA">      1.00000000</i>
  </separator>
  <separator name="linear response parameters" >
   <i type="logical" name="LEPSILON"> F  </i>
   <i type="logical" name="LRPA"> F  </i>
   <i type="logical" name="LNABLA"> F  </i>
   <i type="logical" name="LVEL"> F  </i>
   <i type="int" name="KINTER">     0</i>
   <i name="CSHIFT">      0.10000000</i>
   <i name="OMEGAMAX">     -1.00000000</i>
   <i name="DEG_THRESHOLD">      0.00200000</i>
   <i name="RTIME">     -0.10000000</i>
   <i name="WPLASMAI">      0.00000000</i>
   <v name="DFIELD">      0.00000000      0.00000000      0.00000000</v>
   <v name="WPLASMA">      0.00000000      0.00000000      0.00000000      0.00000000      0.00000000      0.00000000      0.00000000      0.00000000      0.00000000</v>
  </separator>
  <separator name="orbital magnetization" >
   <i type="logical" name="NUCIND"> F  </i>
   <v name="MAGPOS">      0.00000000      0.00000000      0.00000000</v>
   <i type="logical" name="LNICSALL"> T  </i>
   <i type="logical" name="ORBITALMAG"> F  </i>
   <i type="logical" name="LMAGBLOCH"> F  </i>
   <i type="logical" name="LCHIMAG"> F  </i>
   <i type="logical" name="LGAUGE"> T  </i>
   <i type="int" name="MAGATOM">     0</i>
   <v name="MAGDIPOL">      0.00000000      0.00000000      0.00000000</v>
   <v name="AVECCONST">      0.00000000      0.00000000      0.00000000</v>
  </separator>
  <separator name="response functions" >
   <i type="logical" name="LADDER"> F  </i>
   <i type="logical" name="LRPAFORCE"> F  </i>
   <i type="logical" name="LFXC"> F  </i>
   <i type="logical" name="LHARTREE"> T  </i>
   <i type="int" name="IBSE">     0</i>
   <v type="int" name="KPOINT">    -1     0     0     0</v>
   <i type="logical" name="LTCTE"> F  </i>
   <i type="logical" name="LTETE"> F  </i>
   <i type="logical" name="LTRIPLET"> F  </i>
   <i type="logical" name="LFXCEPS"> F  </i>
   <i type="logical" name="LFXHEG"> F  </i>
   <i type="int" name="NATURALO">     2</i>
   <i type="logical" name="L2ORDER"> F  </i>
   <i type="logical" name="LMP2LT"> F  </i>
   <i type="logical" name="LUSEW"> F  </i>
   <i name="ENCUTGW">     -2.00000000</i>
   <i name="ENCUTGWSOFT">     -2.00000000</i>
   <i name="ENCUTLF">     -1.00000000</i>
   <i type="int" name="LMAXMP2">    -1</i>
   <i name="SCISSOR">      0.00000000</i>
   <i type="int" name="NOMEGA">     0</i>
   <i type="int" name="NOMEGAR">     0</i>
   <i type="int" name="NBANDSGW">    -1</i>
   <i type="int" name="NBANDSO">    -1</i>
   <i type="int" name="NBANDSV">    -1</i>
   <i type="int" name="NELM">  1000</i>
   <i type="int" name="NELMHF">     1</i>
   <i type="int" name="DIM">     3</i>
   <i type="int" name="ANTIRES">     0</i>
   <i name="OMEGAMAX">    -30.00000000</i>
   <i name="OMEGAMIN">    -30.00000000</i>
   <i name="OMEGATL">   -200.00000000</i>
   <i type="int" name="OMEGAGRID">   140</i>
   <i name="CSHIFT">     -0.10000000</i>
   <i type="logical" name="SELFENERGY"> F  </i>
   <i type="logical" name="LSPECTRAL"> F  </i>
   <i type="logical" name="LSPECTRALGW"> F  </i>
   <i type="logical" name="LSINGLES"> F  </i>
   <i type="logical" name="LFERMIGW"> F  </i>
   <i type="logical" name="ODDONLYGW"> F  </i>
   <i type="logical" name="EVENONLYGW"> F  </i>
   <i type="int" name="NKREDLFX">     1</i>
   <i type="int" name="NKREDLFY">     1</i>
   <i type="int" name="NKREDLFZ">     1</i>
   <i type="int" name="MAXMEM">  2800</i>
   <i type="int" name="TELESCOPE">     0</i>
   <i type="int" name="TAUPAR">     1</i>
   <i type="int" name="OMEGAPAR">    -1</i>
   <i name="LAMBDA">      1.00000000</i>
  </separator>
  <separator name="External order field" >
   <i name="OFIELD_KAPPA">      0.00000000</i>
   <v name="OFIELD_K">      0.00000000      0.00000000      0.00000000</v>
   <i name="OFIELD_Q6_NEAR">      0.00000000</i>
   <i name="OFIELD_Q6_FAR">      0.00000000</i>
   <i name="OFIELD_A">      0.00000000</i>
  </separator>
 </parameters>
 <atominfo>
  <atoms>      27 </atoms>
  <types>       2 </types>
  <array name="atoms" >
   <dimension dim="1">ion</dimension>
   <field type="string">element</field>
   <field type="int">atomtype</field>
   <set>
    <rc><c>Mo</c><c>   1</c></rc>
    <rc><c>Mo</c><c>   1</c></rc>
    <rc><c>Mo</c><c>   1</c></rc>
    <rc><c>Mo</c><c>   1</c></rc>
    <rc><c>Mo</c><c>   1</c></rc>
    <rc><c>Mo</c><c>   1</c></rc>
    <rc><c>Mo</c><c>   1</c></rc>
    <rc><c>Mo</c><c>   1</c></rc>
    <rc><c>Mo</c><c>   1</c></rc>
    <rc><c>S </c><c>   2</c></rc>
    <rc><c>S </c><c>   2</c></rc>
    <rc><c>S </c><c>   2</c></rc>
    <rc><c>S </c><c>   2</c></rc>
    <rc><c>S </c><c>   2</c></rc>
    <rc><c>S </c><c>   2</c></rc>
    <rc><c>S </c><c>   2</c></rc>
    <rc><c>S </c><c>   2</c></rc>
    <rc><c>S </c><c>   2</c></rc>
    <rc><c>S </c><c>   2</c></rc>
    <rc><c>S </c><c>   2</c></rc>
    <rc><c>S </c><c>   2</c></rc>
    <rc><c>S </c><c>   2</c></rc>
    <rc><c>S </c><c>   2</c></rc>
    <rc><c>S </c><c>   2</c></rc>
    <rc><c>S </c><c>   2</c></rc>
    <rc><c>S </c><c>   2</c></rc>
    <rc><c>S </c><c>   2</c></rc>
   </set>
  </array>
  <array name="atomtypes" >
   <dimension dim="1">type</dimension>
   <field type="int">atomspertype</field>
   <field type="string">element</field>
   <field>mass</field>
   <field>valence</field>
   <field type="string">pseudopotential</field>
   <set>
    <rc><c>   9</c><c>Mo</c><c>     95.94000000</c><c>     14.00000000</c><c>  PAW_PBE Mo_sv 02Feb2006               </c></rc>
    <rc><c>  18</c><c>S </c><c>     32.06600000</c><c>      6.00000000</c><c>  PAW_PBE S 06Sep2000                   </c></rc>
   </set>
  </array>
 </atominfo>
 <structure name="initialpos" >
  <crystal>
   <varray name="basis" >
    <v>       9.55219900       0.00000000       0.00000000 </v>
    <v>      -4.77610000       8.27244700       0.00000000 </v>
    <v>       0.00000000       0.00000000      18.12711300 </v>
   </varray>
   <i name="volume">   1432.40555618 </i>
   <varray name="rec_basis" >
    <v>       0.10468794       0.06044161      -0.00000000 </v>
    <v>       0.00000000       0.12088322       0.00000000 </v>
    <v>       0.00000000      -0.00000000       0.05516598 </v>
   </varray>
  </crystal>
  <varray name="positions" >
   <v>       0.00113632       0.00177469       0.50095032 </v>
   <v>       0.33526567       0.33989951       0.49796008 </v>
   <v>       0.67045695       0.00128385       0.49874280 </v>
   <v>       0.33138792       0.99781328       0.50002353 </v>
   <v>       0.33594195       0.66365290       0.50181130 </v>
   <v>       0.66156931       0.33207911       0.49887519 </v>
   <v>       0.99318272       0.33187865       0.49898755 </v>
   <v>       0.66879735       0.66716462       0.50241853 </v>
   <v>       0.00388098       0.66482120       0.50016632 </v>
   <v>       0.55068243       0.11094319       0.58214564 </v>
   <v>       0.22933204       0.12157827       0.58528918 </v>
   <v>       0.22364900       0.11439612       0.41635080 </v>
   <v>       0.21936936       0.44263474       0.58654727 </v>
   <v>       0.21641781       0.44246494       0.41326659 </v>
   <v>       0.22754913       0.77541156       0.58359604 </v>
   <v>       0.22451771       0.77722201       0.41703288 </v>
   <v>       0.55286553       0.11258065       0.41196793 </v>
   <v>       0.55076112       0.76735566       0.41430953 </v>
   <v>       0.55543628       0.44667788       0.58664402 </v>
   <v>       0.55756097       0.77768710       0.58733008 </v>
   <v>       0.55549641       0.45179071       0.41288293 </v>
   <v>       0.88693879       0.10972217       0.58882291 </v>
   <v>       0.89042713       0.11141482       0.41493798 </v>
   <v>       0.88599425       0.44112557       0.58450953 </v>
   <v>       0.88439472       0.43960655       0.41497557 </v>
   <v>       0.89421899       0.77710659       0.58586752 </v>
   <v>       0.88954382       0.77918102       0.41371616 </v>
  </varray>
 </structure>
 <calculation>
  <scstep>
   <time name="dav">   83.93   84.42</time>
   <time name="total">   84.50   85.00</time>
   <energy>
    <i name="alphaZ">    267.51052480 </i>
    <i name="ewald">  40472.62884125 </i>
    <i name="hartreedc"> -59538.56023398 </i>
    <i name="XCdc">    822.79152081 </i>
    <i name="pawpsdc">  17395.10119161 </i>
    <i name="pawaedc"> -17171.31696658 </i>
    <i name="eentropy">     -0.01859873 </i>
    <i name="bandstr">  -1786.37126936 </i>
    <i name="atom">  21743.34108040 </i>
    <i name="e_fr_energy">   2205.10609021 </i>
    <i name="e_wo_entrp">   2205.12468894 </i>
    <i name="e_0_energy">   2205.11538957 </i>
   </energy>
  </scstep>
  <scstep>
   <time name="dav">   89.08   89.57</time>
   <time name="total">   89.08   89.58</time>
   <energy>
    <i name="e_fr_energy">      5.19391580 </i>
    <i name="e_wo_entrp">      5.19391580 </i>
    <i name="e_0_energy">      5.19391580 </i>
   </energy>
  </scstep>
  <scstep>
   <time name="dav">   79.27   79.69</time>
   <time name="total">   79.27   79.69</time>
   <energy>
    <i name="e_fr_energy">   -201.55668592 </i>
    <i name="e_wo_entrp">   -201.55668592 </i>
    <i name="e_0_energy">   -201.55668592 </i>
   </energy>
  </scstep>
  <scstep>
   <time name="dav">   88.21   88.66</time>
   <time name="total">   88.22   88.66</time>
   <energy>
    <i name="e_fr_energy">   -209.68468053 </i>
    <i name="e_wo_entrp">   -209.68468053 </i>
    <i name="e_0_energy">   -209.68468053 </i>
   </energy>
  </scstep>
  <scstep>
   <time name="dav">   93.98   94.46</time>
   <time name="total">  100.32  100.82</time>
   <energy>
    <i name="e_fr_energy">   -209.93338403 </i>
    <i name="e_wo_entrp">   -209.93338403 </i>
    <i name="e_0_energy">   -209.93338403 </i>
   </energy>
  </scstep>
  <scstep>
   <time name="dav">   77.63   78.05</time>
   <time name="total">   84.55   85.00</time>
   <energy>
    <i name="e_fr_energy">   -199.66666665 </i>
    <i name="e_wo_entrp">   -199.66666665 </i>
    <i name="e_0_energy">   -199.66666665 </i>
   </energy>
  </scstep>
  <scstep>
   <time name="dav">   76.82   77.23</time>
   <time name="total">   83.66   84.10</time>
   <energy>
    <i name="e_fr_energy">   -197.76122026 </i>
    <i name="e_wo_entrp">   -197.76122026 </i>
    <i name="e_0_energy">   -197.76122026 </i>
   </energy>
  </scstep>
  <scstep>
   <time name="dav">   81.72   82.13</time>
   <time name="total">   88.51   88.95</time>
   <energy>
    <i name="e_fr_energy">   -196.31541700 </i>
    <i name="e_wo_entrp">   -196.31541700 </i>
    <i name="e_0_energy">   -196.31541700 </i>
   </energy>
  </scstep>
  <scstep>
   <time name="dav">   89.08   89.54</time>
   <time name="total">   95.85   96.34</time>
   <energy>
    <i name="e_fr_energy">   -196.33321244 </i>
    <i name="e_wo_entrp">   -196.33321244 </i>
    <i name="e_0_energy">   -196.33321244 </i>
   </energy>
  </scstep>
  <scstep>
   <time name="dav">   86.37   86.82</time>
   <time name="total">   93.19   93.66</time>
   <energy>
    <i name="e_fr_energy">   -196.27394215 </i>
    <i name="e_wo_entrp">   -196.27394215 </i>
    <i name="e_0_energy">   -196.27394215 </i>
   </energy>
  </scstep>
  <scstep>
   <time name="dav">   85.75   86.20</time>
   <time name="total">   92.55   93.03</time>
   <energy>
    <i name="e_fr_energy">   -196.25181446 </i>
    <i name="e_wo_entrp">   -196.25181446 </i>
    <i name="e_0_energy">   -196.25181446 </i>
   </energy>
  </scstep>
  <scstep>
   <time name="dav">   90.13   90.59</time>
   <time name="total">   96.85   97.33</time>
   <energy>
    <i name="e_fr_energy">   -196.24790928 </i>
    <i name="e_wo_entrp">   -196.24790928 </i>
    <i name="e_0_energy">   -196.24790928 </i>
   </energy>
  </scstep>
  <scstep>
   <time name="dav">   85.27   85.70</time>
   <time name="total">   92.01   92.46</time>
   <energy>
    <i name="e_fr_energy">   -196.24502688 </i>
    <i name="e_wo_entrp">   -196.24502688 </i>
    <i name="e_0_energy">   -196.24502688 </i>
   </energy>
  </scstep>
  <scstep>
   <time name="dav">   85.05   85.51</time>
   <time name="total">   91.80   92.28</time>
   <energy>
    <i name="e_fr_energy">   -196.24467483 </i>
    <i name="e_wo_entrp">   -196.24467483 </i>
    <i name="e_0_energy">   -196.24467483 </i>
   </energy>
  </scstep>
  <scstep>
   <time name="dav">   80.63   81.06</time>
   <time name="total">   87.31   87.77</time>
   <energy>
    <i name="e_fr_energy">   -196.24445837 </i>
    <i name="e_wo_entrp">   -196.24445837 </i>
    <i name="e_0_energy">   -196.24445837 </i>
   </energy>
  </scstep>
  <scstep>
   <time name="dav">   80.83   81.24</time>
   <time name="total">   87.51   87.95</time>
   <energy>
    <i name="e_fr_energy">   -196.24485695 </i>
    <i name="e_wo_entrp">   -196.24485695 </i>
    <i name="e_0_energy">   -196.24485695 </i>
   </energy>
  </scstep>
  <scstep>
   <time name="dav">   87.83   88.28</time>
   <time name="total">   94.55   95.03</time>
   <energy>
    <i name="e_fr_energy">   -196.24514675 </i>
    <i name="e_wo_entrp">   -196.24514675 </i>
    <i name="e_0_energy">   -196.24514675 </i>
   </energy>
  </scstep>
  <scstep>
   <time name="dav">   79.20   79.63</time>
   <time name="total">   85.86   86.32</time>
   <energy>
    <i name="e_fr_energy">   -196.24570161 </i>
    <i name="e_wo_entrp">   -196.24570161 </i>
    <i name="e_0_energy">   -196.24570161 </i>
   </energy>
  </scstep>
  <scstep>
   <time name="dav">   78.76   79.21</time>
   <time name="total">   85.43   85.91</time>
   <energy>
    <i name="e_fr_energy">   -196.24591730 </i>
    <i name="e_wo_entrp">   -196.24591730 </i>
    <i name="e_0_energy">   -196.24591730 </i>
   </energy>
  </scstep>
  <scstep>
   <time name="dav">   74.90   75.30</time>
   <time name="total">   81.55   81.98</time>
   <energy>
    <i name="e_fr_energy">   -196.24600494 </i>
    <i name="e_wo_entrp">   -196.24600494 </i>
    <i name="e_0_energy">   -196.24600494 </i>
   </energy>
  </scstep>
  <scstep>
   <time name="dav">   69.24   69.62</time>
   <time name="total">   75.91   76.32</time>
   <energy>
    <i name="e_fr_energy">   -196.24618342 </i>
    <i name="e_wo_entrp">   -196.24618342 </i>
    <i name="e_0_energy">   -196.24618342 </i>
   </energy>
  </scstep>
  <scstep>
   <time name="dav">   67.51   67.89</time>
   <time name="total">   74.21   74.61</time>
   <energy>
    <i name="e_fr_energy">   -196.24628409 </i>
    <i name="e_wo_entrp">   -196.24628409 </i>
    <i name="e_0_energy">   -196.24628409 </i>
   </energy>
  </scstep>
  <scstep>
   <time name="dav">   63.66   64.01</time>
   <time name="total">   70.33   70.71</time>
   <energy>
    <i name="e_fr_energy">   -196.24642357 </i>
    <i name="e_wo_entrp">   -196.24642357 </i>
    <i name="e_0_energy">   -196.24642357 </i>
   </energy>
  </scstep>
  <scstep>
   <time name="dav">   65.68   66.03</time>
   <time name="total">   72.34   72.72</time>
   <energy>
    <i name="e_fr_energy">   -196.24653049 </i>
    <i name="e_wo_entrp">   -196.24653049 </i>
    <i name="e_0_energy">   -196.24653049 </i>
   </energy>
  </scstep>
  <scstep>
   <time name="dav">   63.42   63.77</time>
   <time name="total">   70.07   70.45</time>
   <energy>
    <i name="e_fr_energy">   -196.24660374 </i>
    <i name="e_wo_entrp">   -196.24660374 </i>
    <i name="e_0_energy">   -196.24660374 </i>
   </energy>
  </scstep>
  <scstep>
   <time name="dav">   61.32   61.65</time>
   <time name="total">   68.01   68.38</time>
   <energy>
    <i name="e_fr_energy">   -196.24663506 </i>
    <i name="e_wo_entrp">   -196.24663506 </i>
    <i name="e_0_energy">   -196.24663506 </i>
   </energy>
  </scstep>
  <scstep>
   <time name="dav">   60.55   60.88</time>
   <time name="total">   67.24   67.60</time>
   <energy>
    <i name="e_fr_energy">   -196.24665143 </i>
    <i name="e_wo_entrp">   -196.24665143 </i>
    <i name="e_0_energy">   -196.24665143 </i>
   </energy>
  </scstep>
  <scstep>
   <time name="dav">   57.50   57.82</time>
   <time name="total">   64.17   64.52</time>
   <energy>
    <i name="e_fr_energy">   -196.24665911 </i>
    <i name="e_wo_entrp">   -196.24665911 </i>
    <i name="e_0_energy">   -196.24665911 </i>
   </energy>
  </scstep>
  <scstep>
   <time name="dav">   53.10   53.39</time>
   <time name="total">   59.77   60.08</time>
   <energy>
    <i name="e_fr_energy">   -196.24666167 </i>
    <i name="e_wo_entrp">   -196.24666167 </i>
    <i name="e_0_energy">   -196.24666167 </i>
   </energy>
  </scstep>
  <scstep>
   <time name="dav">   55.49   55.79</time>
   <time name="total">   62.17   62.51</time>
   <energy>
    <i name="e_fr_energy">   -196.24666343 </i>
    <i name="e_wo_entrp">   -196.24666343 </i>
    <i name="e_0_energy">   -196.24666343 </i>
   </energy>
  </scstep>
  <scstep>
   <time name="dav">   47.95   48.22</time>
   <time name="total">   48.49   48.77</time>
   <energy>
    <i name="alphaZ">    267.51052480 </i>
    <i name="ewald">  40472.62884125 </i>
    <i name="hartreedc"> -59506.39131342 </i>
    <i name="XCdc">    817.84379309 </i>
    <i name="pawpsdc">  26537.07841946 </i>
    <i name="pawaedc"> -26348.00850877 </i>
    <i name="eentropy">     -0.00000000 </i>
    <i name="bandstr">  -4180.24950043 </i>
    <i name="atom">  21743.34108040 </i>
    <i name="e_fr_energy">   -196.24666362 </i>
    <i name="e_wo_entrp">   -196.24666362 </i>
    <i name="e_0_energy">   -196.24666362 </i>
   </energy>
  </scstep>
  <structure>
   <crystal>
    <varray name="basis" >
     <v>       9.55219900       0.00000000       0.00000000 </v>
     <v>      -4.77610000       8.27244700       0.00000000 </v>
     <v>       0.00000000       0.00000000      18.12711300 </v>
    </varray>
    <i name="volume">   1432.40555618 </i>
    <varray name="rec_basis" >
     <v>       0.10468794       0.06044161      -0.00000000 </v>
     <v>       0.00000000       0.12088322       0.00000000 </v>
     <v>       0.00000000      -0.00000000       0.05516598 </v>
    </varray>
   </crystal>
   <varray name="positions" >
    <v>       0.00113632       0.00177469       0.50095032 </v>
    <v>       0.33526567       0.33989951       0.49796008 </v>
    <v>       0.67045695       0.00128385       0.49874280 </v>
    <v>       0.33138792       0.99781328       0.50002353 </v>
    <v>       0.33594195       0.66365290       0.50181130 </v>
    <v>       0.66156931       0.33207911       0.49887519 </v>
    <v>       0.99318272       0.33187865       0.49898755 </v>
    <v>       0.66879735       0.66716462       0.50241853 </v>
    <v>       0.00388098       0.66482120       0.50016632 </v>
    <v>       0.55068243       0.11094319       0.58214564 </v>
    <v>       0.22933204       0.12157827       0.58528918 </v>
    <v>       0.22364900       0.11439612       0.41635080 </v>
    <v>       0.21936936       0.44263474       0.58654727 </v>
    <v>       0.21641781       0.44246494       0.41326659 </v>
    <v>       0.22754913       0.77541156       0.58359604 </v>
    <v>       0.22451771       0.77722201       0.41703288 </v>
    <v>       0.55286553       0.11258065       0.41196793 </v>
    <v>       0.55076112       0.76735566       0.41430953 </v>
    <v>       0.55543628       0.44667788       0.58664402 </v>
    <v>       0.55756097       0.77768710       0.58733008 </v>
    <v>       0.55549641       0.45179071       0.41288293 </v>
    <v>       0.88693879       0.10972217       0.58882291 </v>
    <v>       0.89042713       0.11141482       0.41493798 </v>
    <v>       0.88599425       0.44112557       0.58450953 </v>
    <v>       0.88439472       0.43960655       0.41497557 </v>
    <v>       0.89421899       0.77710659       0.58586752 </v>
    <v>       0.88954382       0.77918102       0.41371616 </v>
   </varray>
  </structure>
  <varray name="forces" >
   <v>       0.00881791       0.06796580       0.24823287 </v>
   <v>       0.00535049      -0.43901991       0.77134312 </v>
   <v>      -0.86150493      -0.67976379       0.23320233 </v>
   <v>       0.06424947       0.64027308      -0.30621091 </v>
   <v>      -0.39285942       0.03450316      -0.67952648 </v>
   <v>       0.03792294       0.53433972      -0.06104017 </v>
   <v>       1.29671742      -0.34505792       0.87136021 </v>
   <v>       0.08101190       0.09568591      -0.72407320 </v>
   <v>      -0.88980336      -0.05642536      -0.24335516 </v>
   <v>       0.59922867      -0.09484702       0.74829156 </v>
   <v>      -0.16123553      -0.50747183       0.10123465 </v>
   <v>      -0.08198908      -0.17530215      -0.63241929 </v>
   <v>      -0.08988574      -0.13625361      -0.13002493 </v>
   <v>       0.01335949       0.25475089      -0.04713341 </v>
   <v>      -0.43026061       0.12971041       1.05680671 </v>
   <v>       0.22000843      -0.23304669      -0.84568193 </v>
   <v>       0.21283704      -0.35606078       0.15429396 </v>
   <v>       0.24996334       0.83387857       0.10155342 </v>
   <v>       0.01811501      -0.22395694      -0.00353239 </v>
   <v>       0.05383156       0.29278514      -0.01113687 </v>
   <v>       0.34475766      -0.20510684       0.03277996 </v>
   <v>      -0.00357035       0.13928968      -0.55055190 </v>
   <v>       0.01136717      -0.16543542      -0.49634745 </v>
   <v>      -0.31518125       0.08960910       0.42007405 </v>
   <v>      -0.21583079       0.46197069      -0.62537132 </v>
   <v>      -0.01585502       0.12577152       0.24787004 </v>
   <v>       0.24043757      -0.08278539       0.36936253 </v>
  </varray>
  <varray name="stress" >
   <v>       2.55530325       0.03877041      -2.37098244 </v>
   <v>       0.03877056       2.86825907      -0.84282690 </v>
   <v>      -2.37098232      -0.84282673       6.12485090 </v>
  </varray>
  <energy>
   <i name="e_fr_energy">   -196.24666362 </i>
   <i name="e_wo_entrp">   -196.24666362 </i>
   <i name="e_0_energy">     -0.00000000 </i>
  </energy>
  <time name="totalsc"> 2638.13 2652.18</time>
  <eigenvalues>
   <array>
    <dimension dim="1">band</dimension>
    <dimension dim="2">kpoint</dimension>
    <dimension dim="3">spin</dimension>
    <field>eigene</field>
    <field>occ</field>
    <set>
     <set comment="spin 1">
      <set comment="kpoint 1">
       <r>  -62.5029    1.0000 </r>
       <r>  -62.4830    1.0000 </r>
       <r>  -62.4780    1.0000 </r>
       <r>  -62.4733    1.0000 </r>
       <r>  -62.4691    1.0000 </r>
       <r>  -62.4673    1.0000 </r>
       <r>  -62.4636    1.0000 </r>
       <r>  -62.4545    1.0000 </r>
       <r>  -62.4502    1.0000 </r>
       <r>  -36.7465    1.0000 </r>
       <r>  -36.7392    1.0000 </r>
       <r>  -36.7329    1.0000 </r>
       <r>  -36.7246    1.0000 </r>
       <r>  -36.7218    1.0000 </r>
       <r>  -36.7115    1.0000 </r>
       <r>  -36.7084    1.0000 </r>
       <r>  -36.7039    1.0000 </r>
       <r>  -36.6848    1.0000 </r>
       <r>  -36.6700    1.0000 </r>
       <r>  -36.6437    1.0000 </r>
       <r>  -36.5988    1.0000 </r>
       <r>  -36.5917    1.0000 </r>
       <r>  -36.5880    1.0000 </r>
       <r>  -36.5858    1.0000 </r>
       <r>  -36.5845    1.0000 </r>
       <r>  -36.5764    1.0000 </r>
       <r>  -36.5588    1.0000 </r>
       <r>  -36.5539    1.0000 </r>
       <r>  -36.5133    1.0000 </r>
       <r>  -36.5115    1.0000 </r>
       <r>  -36.5073    1.0000 </r>
       <r>  -36.5028    1.0000 </r>
       <r>  -36.4986    1.0000 </r>
       <r>  -36.4922    1.0000 </r>
       <r>  -36.4402    1.0000 </r>
       <r>  -36.4368    1.0000 </r>
       <r>  -15.7476    1.0000 </r>
       <r>  -14.5268    1.0000 </r>
       <r>  -14.4930    1.0000 </r>
       <r>  -14.4669    1.0000 </r>
       <r>  -14.4374    1.0000 </r>
       <r>  -14.3924    1.0000 </r>
       <r>  -14.3827    1.0000 </r>
       <r>  -14.3623    1.0000 </r>
       <r>  -13.9347    1.0000 </r>
       <r>  -13.9244    1.0000 </r>
       <r>  -13.9070    1.0000 </r>
       <r>  -13.8806    1.0000 </r>
       <r>  -13.8637    1.0000 </r>
       <r>  -13.8210    1.0000 </r>
       <r>  -13.6157    1.0000 </r>
       <r>  -13.5966    1.0000 </r>
       <r>  -13.5341    1.0000 </r>
       <r>  -13.4827    1.0000 </r>
       <r>   -7.2768    1.0000 </r>
       <r>   -7.0784    1.0000 </r>
       <r>   -7.0726    1.0000 </r>
       <r>   -6.9501    1.0000 </r>
       <r>   -6.9454    1.0000 </r>
       <r>   -6.9156    1.0000 </r>
       <r>   -6.8750    1.0000 </r>
       <r>   -6.8639    1.0000 </r>
       <r>   -6.8464    1.0000 </r>
       <r>   -6.2976    1.0000 </r>
       <r>   -6.1762    1.0000 </r>
       <r>   -5.8756    1.0000 </r>
       <r>   -5.8522    1.0000 </r>
       <r>   -5.8286    1.0000 </r>
       <r>   -5.8177    1.0000 </r>
       <r>   -5.7985    1.0000 </r>
       <r>   -5.7672    1.0000 </r>
       <r>   -5.7203    1.0000 </r>
       <r>   -5.6936    1.0000 </r>
       <r>   -5.5880    1.0000 </r>
       <r>   -5.5799    1.0000 </r>
       <r>   -5.5595    1.0000 </r>
       <r>   -5.5394    1.0000 </r>
       <r>   -5.5117    1.0000 </r>
       <r>   -5.5028    1.0000 </r>
       <r>   -5.2197    1.0000 </r>
       <r>   -5.1937    1.0000 </r>
       <r>   -4.6571    1.0000 </r>
       <r>   -4.5833    1.0000 </r>
       <r>   -4.5653    1.0000 </r>
       <r>   -4.5440    1.0000 </r>
       <r>   -4.4891    1.0000 </r>
       <r>   -4.4689    1.0000 </r>
       <r>   -4.4394    1.0000 </r>
       <r>   -4.3585    1.0000 </r>
       <r>   -4.2912    1.0000 </r>
       <r>   -4.2750    1.0000 </r>
       <r>   -3.8098    1.0000 </r>
       <r>   -3.7477    1.0000 </r>
       <r>   -3.4089    1.0000 </r>
       <r>   -3.3341    1.0000 </r>
       <r>   -3.2790    1.0000 </r>
       <r>   -3.2606    1.0000 </r>
       <r>   -3.2233    1.0000 </r>
       <r>   -3.1914    1.0000 </r>
       <r>   -3.1844    1.0000 </r>
       <r>   -3.1644    1.0000 </r>
       <r>   -3.1463    1.0000 </r>
       <r>   -3.1126    1.0000 </r>
       <r>   -3.0934    1.0000 </r>
       <r>   -3.0690    1.0000 </r>
       <r>   -3.0388    1.0000 </r>
       <r>   -2.9806    1.0000 </r>
       <r>   -2.9137    1.0000 </r>
       <r>   -2.6285    1.0000 </r>
       <r>   -2.6109    1.0000 </r>
       <r>   -2.6030    1.0000 </r>
       <r>   -2.5851    1.0000 </r>
       <r>   -2.5422    1.0000 </r>
       <r>   -2.5262    1.0000 </r>
       <r>   -1.7082    1.0000 </r>
       <r>   -1.6523    1.0000 </r>
       <r>   -1.5574    1.0000 </r>
       <r>   -0.0219    0.0000 </r>
       <r>   -0.0056    0.0000 </r>
       <r>    0.4769    0.0000 </r>
       <r>    0.5108    0.0000 </r>
       <r>    0.5526    0.0000 </r>
       <r>    0.5577    0.0000 </r>
       <r>    0.5786    0.0000 </r>
       <r>    0.6244    0.0000 </r>
       <r>    0.6655    0.0000 </r>
       <r>    0.7139    0.0000 </r>
       <r>    0.7444    0.0000 </r>
       <r>    0.7534    0.0000 </r>
       <r>    0.7863    0.0000 </r>
       <r>    0.8252    0.0000 </r>
       <r>    1.0912    0.0000 </r>
       <r>    1.1367    0.0000 </r>
       <r>    1.3673    0.0000 </r>
       <r>    1.3828    0.0000 </r>
       <r>    1.4662    0.0000 </r>
       <r>    1.4811    0.0000 </r>
       <r>    1.6928    0.0000 </r>
       <r>    1.7124    0.0000 </r>
       <r>    1.7521    0.0000 </r>
      </set>
      <set comment="kpoint 2">
       <r>  -62.5020    1.0000 </r>
       <r>  -62.4840    1.0000 </r>
       <r>  -62.4789    1.0000 </r>
       <r>  -62.4744    1.0000 </r>
       <r>  -62.4691    1.0000 </r>
       <r>  -62.4657    1.0000 </r>
       <r>  -62.4628    1.0000 </r>
       <r>  -62.4547    1.0000 </r>
       <r>  -62.4504    1.0000 </r>
       <r>  -36.7761    1.0000 </r>
       <r>  -36.7551    1.0000 </r>
       <r>  -36.7511    1.0000 </r>
       <r>  -36.7425    1.0000 </r>
       <r>  -36.7310    1.0000 </r>
       <r>  -36.6967    1.0000 </r>
       <r>  -36.6887    1.0000 </r>
       <r>  -36.6633    1.0000 </r>
       <r>  -36.6571    1.0000 </r>
       <r>  -36.6505    1.0000 </r>
       <r>  -36.6406    1.0000 </r>
       <r>  -36.6045    1.0000 </r>
       <r>  -36.5940    1.0000 </r>
       <r>  -36.5903    1.0000 </r>
       <r>  -36.5842    1.0000 </r>
       <r>  -36.5797    1.0000 </r>
       <r>  -36.5730    1.0000 </r>
       <r>  -36.5596    1.0000 </r>
       <r>  -36.5547    1.0000 </r>
       <r>  -36.5230    1.0000 </r>
       <r>  -36.5192    1.0000 </r>
       <r>  -36.5116    1.0000 </r>
       <r>  -36.5063    1.0000 </r>
       <r>  -36.4976    1.0000 </r>
       <r>  -36.4865    1.0000 </r>
       <r>  -36.4513    1.0000 </r>
       <r>  -36.4396    1.0000 </r>
       <r>  -15.7019    1.0000 </r>
       <r>  -14.7697    1.0000 </r>
       <r>  -14.5902    1.0000 </r>
       <r>  -14.5779    1.0000 </r>
       <r>  -14.3909    1.0000 </r>
       <r>  -14.2813    1.0000 </r>
       <r>  -14.2564    1.0000 </r>
       <r>  -14.1503    1.0000 </r>
       <r>  -14.0222    1.0000 </r>
       <r>  -13.9552    1.0000 </r>
       <r>  -13.9187    1.0000 </r>
       <r>  -13.8426    1.0000 </r>
       <r>  -13.8112    1.0000 </r>
       <r>  -13.7635    1.0000 </r>
       <r>  -13.6458    1.0000 </r>
       <r>  -13.6297    1.0000 </r>
       <r>  -13.5518    1.0000 </r>
       <r>  -13.5011    1.0000 </r>
       <r>   -7.2291    1.0000 </r>
       <r>   -7.1583    1.0000 </r>
       <r>   -7.0399    1.0000 </r>
       <r>   -7.0095    1.0000 </r>
       <r>   -7.0066    1.0000 </r>
       <r>   -6.9580    1.0000 </r>
       <r>   -6.7855    1.0000 </r>
       <r>   -6.7601    1.0000 </r>
       <r>   -6.6781    1.0000 </r>
       <r>   -6.4993    1.0000 </r>
       <r>   -6.4316    1.0000 </r>
       <r>   -6.1328    1.0000 </r>
       <r>   -6.0155    1.0000 </r>
       <r>   -5.9986    1.0000 </r>
       <r>   -5.6755    1.0000 </r>
       <r>   -5.6445    1.0000 </r>
       <r>   -5.6033    1.0000 </r>
       <r>   -5.5720    1.0000 </r>
       <r>   -5.5629    1.0000 </r>
       <r>   -5.5513    1.0000 </r>
       <r>   -5.5348    1.0000 </r>
       <r>   -5.5103    1.0000 </r>
       <r>   -5.4959    1.0000 </r>
       <r>   -5.4760    1.0000 </r>
       <r>   -5.4295    1.0000 </r>
       <r>   -5.0753    1.0000 </r>
       <r>   -5.0585    1.0000 </r>
       <r>   -4.7676    1.0000 </r>
       <r>   -4.6988    1.0000 </r>
       <r>   -4.6800    1.0000 </r>
       <r>   -4.6211    1.0000 </r>
       <r>   -4.5450    1.0000 </r>
       <r>   -4.5176    1.0000 </r>
       <r>   -4.4818    1.0000 </r>
       <r>   -4.3770    1.0000 </r>
       <r>   -4.2803    1.0000 </r>
       <r>   -4.2270    1.0000 </r>
       <r>   -3.7340    1.0000 </r>
       <r>   -3.6790    1.0000 </r>
       <r>   -3.6578    1.0000 </r>
       <r>   -3.3953    1.0000 </r>
       <r>   -3.3487    1.0000 </r>
       <r>   -3.3137    1.0000 </r>
       <r>   -3.2949    1.0000 </r>
       <r>   -3.2748    1.0000 </r>
       <r>   -3.2363    1.0000 </r>
       <r>   -3.1887    1.0000 </r>
       <r>   -3.1564    1.0000 </r>
       <r>   -3.0886    1.0000 </r>
       <r>   -3.0582    1.0000 </r>
       <r>   -3.0293    1.0000 </r>
       <r>   -3.0077    1.0000 </r>
       <r>   -2.9123    1.0000 </r>
       <r>   -2.8052    1.0000 </r>
       <r>   -2.5774    1.0000 </r>
       <r>   -2.5440    1.0000 </r>
       <r>   -2.5037    1.0000 </r>
       <r>   -2.4649    1.0000 </r>
       <r>   -2.4515    1.0000 </r>
       <r>   -2.4106    1.0000 </r>
       <r>   -1.7947    1.0000 </r>
       <r>   -1.7419    1.0000 </r>
       <r>   -1.5967    1.0000 </r>
       <r>    0.1025    0.0000 </r>
       <r>    0.1161    0.0000 </r>
       <r>    0.4281    0.0000 </r>
       <r>    0.4646    0.0000 </r>
       <r>    0.5074    0.0000 </r>
       <r>    0.5346    0.0000 </r>
       <r>    0.5671    0.0000 </r>
       <r>    0.6137    0.0000 </r>
       <r>    0.6496    0.0000 </r>
       <r>    0.7562    0.0000 </r>
       <r>    0.7896    0.0000 </r>
       <r>    0.8490    0.0000 </r>
       <r>    0.8637    0.0000 </r>
       <r>    0.9143    0.0000 </r>
       <r>    1.0675    0.0000 </r>
       <r>    1.1711    0.0000 </r>
       <r>    1.2549    0.0000 </r>
       <r>    1.3327    0.0000 </r>
       <r>    1.4174    0.0000 </r>
       <r>    1.4433    0.0000 </r>
       <r>    1.5135    0.0000 </r>
       <r>    1.5644    0.0000 </r>
       <r>    1.5994    0.0000 </r>
      </set>
      <set comment="kpoint 3">
       <r>  -62.4998    1.0000 </r>
       <r>  -62.4866    1.0000 </r>
       <r>  -62.4802    1.0000 </r>
       <r>  -62.4760    1.0000 </r>
       <r>  -62.4679    1.0000 </r>
       <r>  -62.4640    1.0000 </r>
       <r>  -62.4616    1.0000 </r>
       <r>  -62.4551    1.0000 </r>
       <r>  -62.4507    1.0000 </r>
       <r>  -36.8059    1.0000 </r>
       <r>  -36.7710    1.0000 </r>
       <r>  -36.7668    1.0000 </r>
       <r>  -36.7589    1.0000 </r>
       <r>  -36.7508    1.0000 </r>
       <r>  -36.6723    1.0000 </r>
       <r>  -36.6652    1.0000 </r>
       <r>  -36.6370    1.0000 </r>
       <r>  -36.6178    1.0000 </r>
       <r>  -36.6157    1.0000 </r>
       <r>  -36.6143    1.0000 </r>
       <r>  -36.6012    1.0000 </r>
       <r>  -36.5967    1.0000 </r>
       <r>  -36.5927    1.0000 </r>
       <r>  -36.5787    1.0000 </r>
       <r>  -36.5744    1.0000 </r>
       <r>  -36.5692    1.0000 </r>
       <r>  -36.5615    1.0000 </r>
       <r>  -36.5566    1.0000 </r>
       <r>  -36.5434    1.0000 </r>
       <r>  -36.5379    1.0000 </r>
       <r>  -36.5229    1.0000 </r>
       <r>  -36.5126    1.0000 </r>
       <r>  -36.5020    1.0000 </r>
       <r>  -36.4829    1.0000 </r>
       <r>  -36.4725    1.0000 </r>
       <r>  -36.4472    1.0000 </r>
       <r>  -15.5686    1.0000 </r>
       <r>  -15.0780    1.0000 </r>
       <r>  -14.6706    1.0000 </r>
       <r>  -14.6633    1.0000 </r>
       <r>  -14.3385    1.0000 </r>
       <r>  -14.1601    1.0000 </r>
       <r>  -14.0977    1.0000 </r>
       <r>  -14.0652    1.0000 </r>
       <r>  -14.0018    1.0000 </r>
       <r>  -13.9691    1.0000 </r>
       <r>  -13.9141    1.0000 </r>
       <r>  -13.7819    1.0000 </r>
       <r>  -13.7556    1.0000 </r>
       <r>  -13.7389    1.0000 </r>
       <r>  -13.7088    1.0000 </r>
       <r>  -13.6826    1.0000 </r>
       <r>  -13.5965    1.0000 </r>
       <r>  -13.5500    1.0000 </r>
       <r>   -7.3493    1.0000 </r>
       <r>   -7.0840    1.0000 </r>
       <r>   -7.0394    1.0000 </r>
       <r>   -7.0354    1.0000 </r>
       <r>   -6.8308    1.0000 </r>
       <r>   -6.8152    1.0000 </r>
       <r>   -6.7754    1.0000 </r>
       <r>   -6.7559    1.0000 </r>
       <r>   -6.7041    1.0000 </r>
       <r>   -6.6367    1.0000 </r>
       <r>   -6.5969    1.0000 </r>
       <r>   -6.3362    1.0000 </r>
       <r>   -6.2543    1.0000 </r>
       <r>   -6.2314    1.0000 </r>
       <r>   -5.7047    1.0000 </r>
       <r>   -5.5449    1.0000 </r>
       <r>   -5.5340    1.0000 </r>
       <r>   -5.5191    1.0000 </r>
       <r>   -5.4980    1.0000 </r>
       <r>   -5.4652    1.0000 </r>
       <r>   -5.4489    1.0000 </r>
       <r>   -5.4403    1.0000 </r>
       <r>   -5.4217    1.0000 </r>
       <r>   -5.3607    1.0000 </r>
       <r>   -5.0397    1.0000 </r>
       <r>   -4.9003    1.0000 </r>
       <r>   -4.8428    1.0000 </r>
       <r>   -4.8044    1.0000 </r>
       <r>   -4.7758    1.0000 </r>
       <r>   -4.7147    1.0000 </r>
       <r>   -4.6954    1.0000 </r>
       <r>   -4.6476    1.0000 </r>
       <r>   -4.6305    1.0000 </r>
       <r>   -4.5843    1.0000 </r>
       <r>   -4.5568    1.0000 </r>
       <r>   -4.1288    1.0000 </r>
       <r>   -4.1150    1.0000 </r>
       <r>   -3.9998    1.0000 </r>
       <r>   -3.6475    1.0000 </r>
       <r>   -3.5900    1.0000 </r>
       <r>   -3.5353    1.0000 </r>
       <r>   -3.5206    1.0000 </r>
       <r>   -3.5048    1.0000 </r>
       <r>   -3.4852    1.0000 </r>
       <r>   -3.4444    1.0000 </r>
       <r>   -3.4117    1.0000 </r>
       <r>   -3.3805    1.0000 </r>
       <r>   -3.2491    1.0000 </r>
       <r>   -3.2030    1.0000 </r>
       <r>   -2.8549    1.0000 </r>
       <r>   -2.8002    1.0000 </r>
       <r>   -2.7733    1.0000 </r>
       <r>   -2.7101    1.0000 </r>
       <r>   -2.6807    1.0000 </r>
       <r>   -2.5195    1.0000 </r>
       <r>   -2.3844    1.0000 </r>
       <r>   -2.3551    1.0000 </r>
       <r>   -2.3095    1.0000 </r>
       <r>   -2.2786    1.0000 </r>
       <r>   -2.1720    1.0000 </r>
       <r>   -1.9764    1.0000 </r>
       <r>   -1.9349    1.0000 </r>
       <r>   -1.6930    1.0000 </r>
       <r>    0.3075    0.0000 </r>
       <r>    0.3294    0.0000 </r>
       <r>    0.3672    0.0000 </r>
       <r>    0.4200    0.0000 </r>
       <r>    0.5069    0.0000 </r>
       <r>    0.5657    0.0000 </r>
       <r>    0.5895    0.0000 </r>
       <r>    0.6171    0.0000 </r>
       <r>    0.7636    0.0000 </r>
       <r>    0.8145    0.0000 </r>
       <r>    0.8607    0.0000 </r>
       <r>    0.9371    0.0000 </r>
       <r>    0.9526    0.0000 </r>
       <r>    0.9649    0.0000 </r>
       <r>    0.9937    0.0000 </r>
       <r>    1.0587    0.0000 </r>
       <r>    1.1250    0.0000 </r>
       <r>    1.1630    0.0000 </r>
       <r>    1.2168    0.0000 </r>
       <r>    1.2464    0.0000 </r>
       <r>    1.3975    0.0000 </r>
       <r>    1.4988    0.0000 </r>
       <r>    1.5210    0.0000 </r>
      </set>
      <set comment="kpoint 4">
       <r>  -62.4983    1.0000 </r>
       <r>  -62.4884    1.0000 </r>
       <r>  -62.4808    1.0000 </r>
       <r>  -62.4765    1.0000 </r>
       <r>  -62.4672    1.0000 </r>
       <r>  -62.4633    1.0000 </r>
       <r>  -62.4612    1.0000 </r>
       <r>  -62.4554    1.0000 </r>
       <r>  -62.4509    1.0000 </r>
       <r>  -36.8164    1.0000 </r>
       <r>  -36.7767    1.0000 </r>
       <r>  -36.7727    1.0000 </r>
       <r>  -36.7648    1.0000 </r>
       <r>  -36.7579    1.0000 </r>
       <r>  -36.6619    1.0000 </r>
       <r>  -36.6552    1.0000 </r>
       <r>  -36.6288    1.0000 </r>
       <r>  -36.6248    1.0000 </r>
       <r>  -36.5999    1.0000 </r>
       <r>  -36.5953    1.0000 </r>
       <r>  -36.5867    1.0000 </r>
       <r>  -36.5835    1.0000 </r>
       <r>  -36.5774    1.0000 </r>
       <r>  -36.5734    1.0000 </r>
       <r>  -36.5720    1.0000 </r>
       <r>  -36.5677    1.0000 </r>
       <r>  -36.5667    1.0000 </r>
       <r>  -36.5623    1.0000 </r>
       <r>  -36.5570    1.0000 </r>
       <r>  -36.5359    1.0000 </r>
       <r>  -36.5296    1.0000 </r>
       <r>  -36.5272    1.0000 </r>
       <r>  -36.5142    1.0000 </r>
       <r>  -36.5022    1.0000 </r>
       <r>  -36.4590    1.0000 </r>
       <r>  -36.4587    1.0000 </r>
       <r>  -15.3844    1.0000 </r>
       <r>  -15.3237    1.0000 </r>
       <r>  -14.6993    1.0000 </r>
       <r>  -14.6924    1.0000 </r>
       <r>  -14.2672    1.0000 </r>
       <r>  -14.2436    1.0000 </r>
       <r>  -14.0130    1.0000 </r>
       <r>  -13.9819    1.0000 </r>
       <r>  -13.9688    1.0000 </r>
       <r>  -13.9031    1.0000 </r>
       <r>  -13.8794    1.0000 </r>
       <r>  -13.8568    1.0000 </r>
       <r>  -13.8256    1.0000 </r>
       <r>  -13.7274    1.0000 </r>
       <r>  -13.6892    1.0000 </r>
       <r>  -13.6497    1.0000 </r>
       <r>  -13.6260    1.0000 </r>
       <r>  -13.6000    1.0000 </r>
       <r>   -7.4181    1.0000 </r>
       <r>   -6.9991    1.0000 </r>
       <r>   -6.9881    1.0000 </r>
       <r>   -6.9486    1.0000 </r>
       <r>   -6.9428    1.0000 </r>
       <r>   -6.8801    1.0000 </r>
       <r>   -6.8370    1.0000 </r>
       <r>   -6.6103    1.0000 </r>
       <r>   -6.6008    1.0000 </r>
       <r>   -6.5649    1.0000 </r>
       <r>   -6.5411    1.0000 </r>
       <r>   -6.5209    1.0000 </r>
       <r>   -6.4741    1.0000 </r>
       <r>   -6.3997    1.0000 </r>
       <r>   -5.7362    1.0000 </r>
       <r>   -5.5287    1.0000 </r>
       <r>   -5.5098    1.0000 </r>
       <r>   -5.4991    1.0000 </r>
       <r>   -5.4767    1.0000 </r>
       <r>   -5.4727    1.0000 </r>
       <r>   -5.4390    1.0000 </r>
       <r>   -5.3483    1.0000 </r>
       <r>   -5.3161    1.0000 </r>
       <r>   -5.0930    1.0000 </r>
       <r>   -5.0209    1.0000 </r>
       <r>   -4.9482    1.0000 </r>
       <r>   -4.8881    1.0000 </r>
       <r>   -4.8739    1.0000 </r>
       <r>   -4.8378    1.0000 </r>
       <r>   -4.8069    1.0000 </r>
       <r>   -4.7937    1.0000 </r>
       <r>   -4.7151    1.0000 </r>
       <r>   -4.5585    1.0000 </r>
       <r>   -4.5190    1.0000 </r>
       <r>   -4.0807    1.0000 </r>
       <r>   -4.0514    1.0000 </r>
       <r>   -4.0019    1.0000 </r>
       <r>   -3.9693    1.0000 </r>
       <r>   -3.9017    1.0000 </r>
       <r>   -3.8470    1.0000 </r>
       <r>   -3.7554    1.0000 </r>
       <r>   -3.6622    1.0000 </r>
       <r>   -3.6299    1.0000 </r>
       <r>   -3.5930    1.0000 </r>
       <r>   -3.5049    1.0000 </r>
       <r>   -3.3780    1.0000 </r>
       <r>   -3.3012    1.0000 </r>
       <r>   -3.2847    1.0000 </r>
       <r>   -3.2649    1.0000 </r>
       <r>   -2.7441    1.0000 </r>
       <r>   -2.7059    1.0000 </r>
       <r>   -2.6535    1.0000 </r>
       <r>   -2.6374    1.0000 </r>
       <r>   -2.6347    1.0000 </r>
       <r>   -2.4978    1.0000 </r>
       <r>   -2.3342    1.0000 </r>
       <r>   -2.2801    1.0000 </r>
       <r>   -2.1970    1.0000 </r>
       <r>   -2.1540    1.0000 </r>
       <r>   -2.1106    1.0000 </r>
       <r>   -2.0969    1.0000 </r>
       <r>   -1.8968    1.0000 </r>
       <r>   -1.8720    1.0000 </r>
       <r>    0.2646    0.0000 </r>
       <r>    0.3451    0.0000 </r>
       <r>    0.4929    0.0000 </r>
       <r>    0.5219    0.0000 </r>
       <r>    0.5625    0.0000 </r>
       <r>    0.5884    0.0000 </r>
       <r>    0.6094    0.0000 </r>
       <r>    0.6725    0.0000 </r>
       <r>    0.7333    0.0000 </r>
       <r>    0.8317    0.0000 </r>
       <r>    0.8572    0.0000 </r>
       <r>    0.9164    0.0000 </r>
       <r>    0.9587    0.0000 </r>
       <r>    0.9999    0.0000 </r>
       <r>    1.0223    0.0000 </r>
       <r>    1.0708    0.0000 </r>
       <r>    1.0808    0.0000 </r>
       <r>    1.1065    0.0000 </r>
       <r>    1.1303    0.0000 </r>
       <r>    1.1716    0.0000 </r>
       <r>    1.1889    0.0000 </r>
       <r>    1.2194    0.0000 </r>
       <r>    1.5779    0.0000 </r>
      </set>
      <set comment="kpoint 5">
       <r>  -62.5019    1.0000 </r>
       <r>  -62.4842    1.0000 </r>
       <r>  -62.4796    1.0000 </r>
       <r>  -62.4721    1.0000 </r>
       <r>  -62.4689    1.0000 </r>
       <r>  -62.4681    1.0000 </r>
       <r>  -62.4620    1.0000 </r>
       <r>  -62.4547    1.0000 </r>
       <r>  -62.4503    1.0000 </r>
       <r>  -36.7764    1.0000 </r>
       <r>  -36.7555    1.0000 </r>
       <r>  -36.7517    1.0000 </r>
       <r>  -36.7410    1.0000 </r>
       <r>  -36.7288    1.0000 </r>
       <r>  -36.7017    1.0000 </r>
       <r>  -36.6849    1.0000 </r>
       <r>  -36.6660    1.0000 </r>
       <r>  -36.6588    1.0000 </r>
       <r>  -36.6474    1.0000 </r>
       <r>  -36.6407    1.0000 </r>
       <r>  -36.6035    1.0000 </r>
       <r>  -36.5950    1.0000 </r>
       <r>  -36.5918    1.0000 </r>
       <r>  -36.5827    1.0000 </r>
       <r>  -36.5794    1.0000 </r>
       <r>  -36.5731    1.0000 </r>
       <r>  -36.5597    1.0000 </r>
       <r>  -36.5547    1.0000 </r>
       <r>  -36.5231    1.0000 </r>
       <r>  -36.5197    1.0000 </r>
       <r>  -36.5145    1.0000 </r>
       <r>  -36.5018    1.0000 </r>
       <r>  -36.4960    1.0000 </r>
       <r>  -36.4896    1.0000 </r>
       <r>  -36.4480    1.0000 </r>
       <r>  -36.4423    1.0000 </r>
       <r>  -15.7019    1.0000 </r>
       <r>  -14.7735    1.0000 </r>
       <r>  -14.6019    1.0000 </r>
       <r>  -14.5563    1.0000 </r>
       <r>  -14.3922    1.0000 </r>
       <r>  -14.2968    1.0000 </r>
       <r>  -14.2420    1.0000 </r>
       <r>  -14.1552    1.0000 </r>
       <r>  -14.0086    1.0000 </r>
       <r>  -13.9660    1.0000 </r>
       <r>  -13.9282    1.0000 </r>
       <r>  -13.8446    1.0000 </r>
       <r>  -13.7931    1.0000 </r>
       <r>  -13.7719    1.0000 </r>
       <r>  -13.6457    1.0000 </r>
       <r>  -13.6289    1.0000 </r>
       <r>  -13.5515    1.0000 </r>
       <r>  -13.5018    1.0000 </r>
       <r>   -7.2271    1.0000 </r>
       <r>   -7.1661    1.0000 </r>
       <r>   -7.0268    1.0000 </r>
       <r>   -7.0180    1.0000 </r>
       <r>   -6.9980    1.0000 </r>
       <r>   -6.9635    1.0000 </r>
       <r>   -6.7979    1.0000 </r>
       <r>   -6.7486    1.0000 </r>
       <r>   -6.6768    1.0000 </r>
       <r>   -6.5110    1.0000 </r>
       <r>   -6.4233    1.0000 </r>
       <r>   -6.1352    1.0000 </r>
       <r>   -6.0196    1.0000 </r>
       <r>   -5.9968    1.0000 </r>
       <r>   -5.6677    1.0000 </r>
       <r>   -5.6418    1.0000 </r>
       <r>   -5.6221    1.0000 </r>
       <r>   -5.5834    1.0000 </r>
       <r>   -5.5628    1.0000 </r>
       <r>   -5.5445    1.0000 </r>
       <r>   -5.5367    1.0000 </r>
       <r>   -5.5102    1.0000 </r>
       <r>   -5.4892    1.0000 </r>
       <r>   -5.4663    1.0000 </r>
       <r>   -5.4172    1.0000 </r>
       <r>   -5.0812    1.0000 </r>
       <r>   -5.0575    1.0000 </r>
       <r>   -4.7638    1.0000 </r>
       <r>   -4.7056    1.0000 </r>
       <r>   -4.6789    1.0000 </r>
       <r>   -4.6219    1.0000 </r>
       <r>   -4.5625    1.0000 </r>
       <r>   -4.5115    1.0000 </r>
       <r>   -4.4473    1.0000 </r>
       <r>   -4.3893    1.0000 </r>
       <r>   -4.2952    1.0000 </r>
       <r>   -4.2191    1.0000 </r>
       <r>   -3.7377    1.0000 </r>
       <r>   -3.6917    1.0000 </r>
       <r>   -3.6275    1.0000 </r>
       <r>   -3.3908    1.0000 </r>
       <r>   -3.3745    1.0000 </r>
       <r>   -3.3296    1.0000 </r>
       <r>   -3.2787    1.0000 </r>
       <r>   -3.2593    1.0000 </r>
       <r>   -3.2252    1.0000 </r>
       <r>   -3.2123    1.0000 </r>
       <r>   -3.1646    1.0000 </r>
       <r>   -3.0963    1.0000 </r>
       <r>   -3.0673    1.0000 </r>
       <r>   -3.0275    1.0000 </r>
       <r>   -3.0002    1.0000 </r>
       <r>   -2.8895    1.0000 </r>
       <r>   -2.8356    1.0000 </r>
       <r>   -2.5596    1.0000 </r>
       <r>   -2.5251    1.0000 </r>
       <r>   -2.5023    1.0000 </r>
       <r>   -2.4881    1.0000 </r>
       <r>   -2.4552    1.0000 </r>
       <r>   -2.3977    1.0000 </r>
       <r>   -1.7958    1.0000 </r>
       <r>   -1.7423    1.0000 </r>
       <r>   -1.5945    1.0000 </r>
       <r>    0.0997    0.0000 </r>
       <r>    0.1191    0.0000 </r>
       <r>    0.4299    0.0000 </r>
       <r>    0.4595    0.0000 </r>
       <r>    0.5075    0.0000 </r>
       <r>    0.5340    0.0000 </r>
       <r>    0.5752    0.0000 </r>
       <r>    0.6090    0.0000 </r>
       <r>    0.6645    0.0000 </r>
       <r>    0.7334    0.0000 </r>
       <r>    0.7864    0.0000 </r>
       <r>    0.8444    0.0000 </r>
       <r>    0.8689    0.0000 </r>
       <r>    0.9169    0.0000 </r>
       <r>    1.0460    0.0000 </r>
       <r>    1.1830    0.0000 </r>
       <r>    1.2638    0.0000 </r>
       <r>    1.3311    0.0000 </r>
       <r>    1.3940    0.0000 </r>
       <r>    1.4777    0.0000 </r>
       <r>    1.5118    0.0000 </r>
       <r>    1.5444    0.0000 </r>
       <r>    1.6005    0.0000 </r>
      </set>
      <set comment="kpoint 6">
       <r>  -62.5004    1.0000 </r>
       <r>  -62.4858    1.0000 </r>
       <r>  -62.4815    1.0000 </r>
       <r>  -62.4731    1.0000 </r>
       <r>  -62.4682    1.0000 </r>
       <r>  -62.4663    1.0000 </r>
       <r>  -62.4612    1.0000 </r>
       <r>  -62.4550    1.0000 </r>
       <r>  -62.4506    1.0000 </r>
       <r>  -36.7953    1.0000 </r>
       <r>  -36.7833    1.0000 </r>
       <r>  -36.7656    1.0000 </r>
       <r>  -36.7452    1.0000 </r>
       <r>  -36.7273    1.0000 </r>
       <r>  -36.7132    1.0000 </r>
       <r>  -36.6405    1.0000 </r>
       <r>  -36.6379    1.0000 </r>
       <r>  -36.6313    1.0000 </r>
       <r>  -36.6284    1.0000 </r>
       <r>  -36.6211    1.0000 </r>
       <r>  -36.6103    1.0000 </r>
       <r>  -36.6017    1.0000 </r>
       <r>  -36.5886    1.0000 </r>
       <r>  -36.5800    1.0000 </r>
       <r>  -36.5761    1.0000 </r>
       <r>  -36.5703    1.0000 </r>
       <r>  -36.5610    1.0000 </r>
       <r>  -36.5560    1.0000 </r>
       <r>  -36.5365    1.0000 </r>
       <r>  -36.5291    1.0000 </r>
       <r>  -36.5276    1.0000 </r>
       <r>  -36.5124    1.0000 </r>
       <r>  -36.4899    1.0000 </r>
       <r>  -36.4841    1.0000 </r>
       <r>  -36.4693    1.0000 </r>
       <r>  -36.4460    1.0000 </r>
       <r>  -15.6123    1.0000 </r>
       <r>  -14.9226    1.0000 </r>
       <r>  -14.8727    1.0000 </r>
       <r>  -14.4111    1.0000 </r>
       <r>  -14.3519    1.0000 </r>
       <r>  -14.3062    1.0000 </r>
       <r>  -14.0963    1.0000 </r>
       <r>  -14.0799    1.0000 </r>
       <r>  -14.0395    1.0000 </r>
       <r>  -13.9740    1.0000 </r>
       <r>  -13.8758    1.0000 </r>
       <r>  -13.8363    1.0000 </r>
       <r>  -13.7474    1.0000 </r>
       <r>  -13.7215    1.0000 </r>
       <r>  -13.7082    1.0000 </r>
       <r>  -13.6719    1.0000 </r>
       <r>  -13.5835    1.0000 </r>
       <r>  -13.5349    1.0000 </r>
       <r>   -7.2506    1.0000 </r>
       <r>   -7.2096    1.0000 </r>
       <r>   -7.1205    1.0000 </r>
       <r>   -6.9029    1.0000 </r>
       <r>   -6.8711    1.0000 </r>
       <r>   -6.8431    1.0000 </r>
       <r>   -6.8185    1.0000 </r>
       <r>   -6.7354    1.0000 </r>
       <r>   -6.6750    1.0000 </r>
       <r>   -6.6425    1.0000 </r>
       <r>   -6.5821    1.0000 </r>
       <r>   -6.2937    1.0000 </r>
       <r>   -6.2642    1.0000 </r>
       <r>   -5.9045    1.0000 </r>
       <r>   -5.8813    1.0000 </r>
       <r>   -5.6565    1.0000 </r>
       <r>   -5.6089    1.0000 </r>
       <r>   -5.5514    1.0000 </r>
       <r>   -5.5001    1.0000 </r>
       <r>   -5.4954    1.0000 </r>
       <r>   -5.4702    1.0000 </r>
       <r>   -5.4526    1.0000 </r>
       <r>   -5.3097    1.0000 </r>
       <r>   -5.2457    1.0000 </r>
       <r>   -5.2021    1.0000 </r>
       <r>   -4.9290    1.0000 </r>
       <r>   -4.8690    1.0000 </r>
       <r>   -4.8269    1.0000 </r>
       <r>   -4.7700    1.0000 </r>
       <r>   -4.7658    1.0000 </r>
       <r>   -4.7159    1.0000 </r>
       <r>   -4.6287    1.0000 </r>
       <r>   -4.6160    1.0000 </r>
       <r>   -4.5431    1.0000 </r>
       <r>   -4.3317    1.0000 </r>
       <r>   -4.2779    1.0000 </r>
       <r>   -4.1461    1.0000 </r>
       <r>   -3.9956    1.0000 </r>
       <r>   -3.5970    1.0000 </r>
       <r>   -3.5817    1.0000 </r>
       <r>   -3.5357    1.0000 </r>
       <r>   -3.5070    1.0000 </r>
       <r>   -3.4905    1.0000 </r>
       <r>   -3.4527    1.0000 </r>
       <r>   -3.4070    1.0000 </r>
       <r>   -3.3850    1.0000 </r>
       <r>   -3.3342    1.0000 </r>
       <r>   -3.0541    1.0000 </r>
       <r>   -3.0132    1.0000 </r>
       <r>   -2.9916    1.0000 </r>
       <r>   -2.9536    1.0000 </r>
       <r>   -2.8728    1.0000 </r>
       <r>   -2.8070    1.0000 </r>
       <r>   -2.7214    1.0000 </r>
       <r>   -2.4770    1.0000 </r>
       <r>   -2.4522    1.0000 </r>
       <r>   -2.3636    1.0000 </r>
       <r>   -2.3423    1.0000 </r>
       <r>   -2.2993    1.0000 </r>
       <r>   -2.2562    1.0000 </r>
       <r>   -1.9525    1.0000 </r>
       <r>   -1.8560    1.0000 </r>
       <r>   -1.6566    1.0000 </r>
       <r>    0.2634    0.0000 </r>
       <r>    0.3051    0.0000 </r>
       <r>    0.3960    0.0000 </r>
       <r>    0.4343    0.0000 </r>
       <r>    0.4820    0.0000 </r>
       <r>    0.5159    0.0000 </r>
       <r>    0.5827    0.0000 </r>
       <r>    0.5907    0.0000 </r>
       <r>    0.7295    0.0000 </r>
       <r>    0.7900    0.0000 </r>
       <r>    0.8617    0.0000 </r>
       <r>    0.8828    0.0000 </r>
       <r>    0.9345    0.0000 </r>
       <r>    0.9920    0.0000 </r>
       <r>    1.0091    0.0000 </r>
       <r>    1.0581    0.0000 </r>
       <r>    1.1623    0.0000 </r>
       <r>    1.2017    0.0000 </r>
       <r>    1.2561    0.0000 </r>
       <r>    1.3576    0.0000 </r>
       <r>    1.4875    0.0000 </r>
       <r>    1.4959    0.0000 </r>
       <r>    1.5423    0.0000 </r>
      </set>
      <set comment="kpoint 7">
       <r>  -62.4983    1.0000 </r>
       <r>  -62.4877    1.0000 </r>
       <r>  -62.4831    1.0000 </r>
       <r>  -62.4744    1.0000 </r>
       <r>  -62.4672    1.0000 </r>
       <r>  -62.4642    1.0000 </r>
       <r>  -62.4611    1.0000 </r>
       <r>  -62.4553    1.0000 </r>
       <r>  -62.4508    1.0000 </r>
       <r>  -36.8115    1.0000 </r>
       <r>  -36.7915    1.0000 </r>
       <r>  -36.7823    1.0000 </r>
       <r>  -36.7498    1.0000 </r>
       <r>  -36.7396    1.0000 </r>
       <r>  -36.7006    1.0000 </r>
       <r>  -36.6312    1.0000 </r>
       <r>  -36.6208    1.0000 </r>
       <r>  -36.6144    1.0000 </r>
       <r>  -36.6071    1.0000 </r>
       <r>  -36.5971    1.0000 </r>
       <r>  -36.5898    1.0000 </r>
       <r>  -36.5853    1.0000 </r>
       <r>  -36.5805    1.0000 </r>
       <r>  -36.5762    1.0000 </r>
       <r>  -36.5720    1.0000 </r>
       <r>  -36.5695    1.0000 </r>
       <r>  -36.5626    1.0000 </r>
       <r>  -36.5592    1.0000 </r>
       <r>  -36.5525    1.0000 </r>
       <r>  -36.5476    1.0000 </r>
       <r>  -36.5397    1.0000 </r>
       <r>  -36.5224    1.0000 </r>
       <r>  -36.5135    1.0000 </r>
       <r>  -36.4874    1.0000 </r>
       <r>  -36.4684    1.0000 </r>
       <r>  -36.4557    1.0000 </r>
       <r>  -15.4413    1.0000 </r>
       <r>  -15.1912    1.0000 </r>
       <r>  -14.9644    1.0000 </r>
       <r>  -14.4131    1.0000 </r>
       <r>  -14.2889    1.0000 </r>
       <r>  -14.1931    1.0000 </r>
       <r>  -14.1220    1.0000 </r>
       <r>  -14.0862    1.0000 </r>
       <r>  -13.9607    1.0000 </r>
       <r>  -13.9021    1.0000 </r>
       <r>  -13.8523    1.0000 </r>
       <r>  -13.8241    1.0000 </r>
       <r>  -13.7819    1.0000 </r>
       <r>  -13.7487    1.0000 </r>
       <r>  -13.6916    1.0000 </r>
       <r>  -13.6658    1.0000 </r>
       <r>  -13.6187    1.0000 </r>
       <r>  -13.5856    1.0000 </r>
       <r>   -7.3569    1.0000 </r>
       <r>   -7.1856    1.0000 </r>
       <r>   -7.0316    1.0000 </r>
       <r>   -6.9468    1.0000 </r>
       <r>   -6.8555    1.0000 </r>
       <r>   -6.7991    1.0000 </r>
       <r>   -6.7435    1.0000 </r>
       <r>   -6.7194    1.0000 </r>
       <r>   -6.6799    1.0000 </r>
       <r>   -6.6061    1.0000 </r>
       <r>   -6.5588    1.0000 </r>
       <r>   -6.4717    1.0000 </r>
       <r>   -6.4198    1.0000 </r>
       <r>   -6.2185    1.0000 </r>
       <r>   -5.8118    1.0000 </r>
       <r>   -5.7024    1.0000 </r>
       <r>   -5.6115    1.0000 </r>
       <r>   -5.5821    1.0000 </r>
       <r>   -5.4519    1.0000 </r>
       <r>   -5.4145    1.0000 </r>
       <r>   -5.3875    1.0000 </r>
       <r>   -5.3020    1.0000 </r>
       <r>   -5.2527    1.0000 </r>
       <r>   -5.0596    1.0000 </r>
       <r>   -4.9649    1.0000 </r>
       <r>   -4.9372    1.0000 </r>
       <r>   -4.9109    1.0000 </r>
       <r>   -4.8881    1.0000 </r>
       <r>   -4.8381    1.0000 </r>
       <r>   -4.7942    1.0000 </r>
       <r>   -4.7318    1.0000 </r>
       <r>   -4.7074    1.0000 </r>
       <r>   -4.5099    1.0000 </r>
       <r>   -4.4682    1.0000 </r>
       <r>   -4.3577    1.0000 </r>
       <r>   -4.0692    1.0000 </r>
       <r>   -4.0237    1.0000 </r>
       <r>   -3.9733    1.0000 </r>
       <r>   -3.9249    1.0000 </r>
       <r>   -3.7721    1.0000 </r>
       <r>   -3.7473    1.0000 </r>
       <r>   -3.6827    1.0000 </r>
       <r>   -3.6101    1.0000 </r>
       <r>   -3.4995    1.0000 </r>
       <r>   -3.4635    1.0000 </r>
       <r>   -3.4193    1.0000 </r>
       <r>   -3.3815    1.0000 </r>
       <r>   -3.2376    1.0000 </r>
       <r>   -3.0822    1.0000 </r>
       <r>   -2.8997    1.0000 </r>
       <r>   -2.8389    1.0000 </r>
       <r>   -2.6963    1.0000 </r>
       <r>   -2.6322    1.0000 </r>
       <r>   -2.5744    1.0000 </r>
       <r>   -2.4585    1.0000 </r>
       <r>   -2.3371    1.0000 </r>
       <r>   -2.2399    1.0000 </r>
       <r>   -2.2138    1.0000 </r>
       <r>   -2.1636    1.0000 </r>
       <r>   -2.0943    1.0000 </r>
       <r>   -2.0414    1.0000 </r>
       <r>   -1.9838    1.0000 </r>
       <r>   -1.7970    1.0000 </r>
       <r>    0.3356    0.0000 </r>
       <r>    0.4095    0.0000 </r>
       <r>    0.4600    0.0000 </r>
       <r>    0.5036    0.0000 </r>
       <r>    0.5252    0.0000 </r>
       <r>    0.5877    0.0000 </r>
       <r>    0.6044    0.0000 </r>
       <r>    0.6231    0.0000 </r>
       <r>    0.7446    0.0000 </r>
       <r>    0.8190    0.0000 </r>
       <r>    0.8566    0.0000 </r>
       <r>    0.8869    0.0000 </r>
       <r>    0.9128    0.0000 </r>
       <r>    0.9422    0.0000 </r>
       <r>    0.9680    0.0000 </r>
       <r>    0.9775    0.0000 </r>
       <r>    1.0878    0.0000 </r>
       <r>    1.1070    0.0000 </r>
       <r>    1.1549    0.0000 </r>
       <r>    1.1905    0.0000 </r>
       <r>    1.2844    0.0000 </r>
       <r>    1.3868    0.0000 </r>
       <r>    1.5013    0.0000 </r>
      </set>
      <set comment="kpoint 8">
       <r>  -62.4984    1.0000 </r>
       <r>  -62.4876    1.0000 </r>
       <r>  -62.4827    1.0000 </r>
       <r>  -62.4750    1.0000 </r>
       <r>  -62.4675    1.0000 </r>
       <r>  -62.4632    1.0000 </r>
       <r>  -62.4614    1.0000 </r>
       <r>  -62.4554    1.0000 </r>
       <r>  -62.4508    1.0000 </r>
       <r>  -36.8109    1.0000 </r>
       <r>  -36.7918    1.0000 </r>
       <r>  -36.7826    1.0000 </r>
       <r>  -36.7494    1.0000 </r>
       <r>  -36.7396    1.0000 </r>
       <r>  -36.7011    1.0000 </r>
       <r>  -36.6315    1.0000 </r>
       <r>  -36.6207    1.0000 </r>
       <r>  -36.6140    1.0000 </r>
       <r>  -36.6078    1.0000 </r>
       <r>  -36.6000    1.0000 </r>
       <r>  -36.5888    1.0000 </r>
       <r>  -36.5829    1.0000 </r>
       <r>  -36.5811    1.0000 </r>
       <r>  -36.5754    1.0000 </r>
       <r>  -36.5722    1.0000 </r>
       <r>  -36.5677    1.0000 </r>
       <r>  -36.5629    1.0000 </r>
       <r>  -36.5579    1.0000 </r>
       <r>  -36.5558    1.0000 </r>
       <r>  -36.5449    1.0000 </r>
       <r>  -36.5392    1.0000 </r>
       <r>  -36.5248    1.0000 </r>
       <r>  -36.5125    1.0000 </r>
       <r>  -36.4887    1.0000 </r>
       <r>  -36.4690    1.0000 </r>
       <r>  -36.4548    1.0000 </r>
       <r>  -15.4413    1.0000 </r>
       <r>  -15.1909    1.0000 </r>
       <r>  -14.9652    1.0000 </r>
       <r>  -14.4098    1.0000 </r>
       <r>  -14.2882    1.0000 </r>
       <r>  -14.2043    1.0000 </r>
       <r>  -14.1242    1.0000 </r>
       <r>  -14.0836    1.0000 </r>
       <r>  -13.9213    1.0000 </r>
       <r>  -13.9043    1.0000 </r>
       <r>  -13.8761    1.0000 </r>
       <r>  -13.8405    1.0000 </r>
       <r>  -13.7733    1.0000 </r>
       <r>  -13.7453    1.0000 </r>
       <r>  -13.7070    1.0000 </r>
       <r>  -13.6417    1.0000 </r>
       <r>  -13.6312    1.0000 </r>
       <r>  -13.5832    1.0000 </r>
       <r>   -7.3572    1.0000 </r>
       <r>   -7.1893    1.0000 </r>
       <r>   -7.0281    1.0000 </r>
       <r>   -6.9472    1.0000 </r>
       <r>   -6.8553    1.0000 </r>
       <r>   -6.8004    1.0000 </r>
       <r>   -6.7497    1.0000 </r>
       <r>   -6.7082    1.0000 </r>
       <r>   -6.6740    1.0000 </r>
       <r>   -6.6077    1.0000 </r>
       <r>   -6.5612    1.0000 </r>
       <r>   -6.4796    1.0000 </r>
       <r>   -6.4226    1.0000 </r>
       <r>   -6.2121    1.0000 </r>
       <r>   -5.8109    1.0000 </r>
       <r>   -5.7035    1.0000 </r>
       <r>   -5.6186    1.0000 </r>
       <r>   -5.5772    1.0000 </r>
       <r>   -5.4556    1.0000 </r>
       <r>   -5.4091    1.0000 </r>
       <r>   -5.3799    1.0000 </r>
       <r>   -5.3088    1.0000 </r>
       <r>   -5.2550    1.0000 </r>
       <r>   -5.0416    1.0000 </r>
       <r>   -4.9659    1.0000 </r>
       <r>   -4.9438    1.0000 </r>
       <r>   -4.9149    1.0000 </r>
       <r>   -4.8784    1.0000 </r>
       <r>   -4.8373    1.0000 </r>
       <r>   -4.8147    1.0000 </r>
       <r>   -4.7282    1.0000 </r>
       <r>   -4.7104    1.0000 </r>
       <r>   -4.4899    1.0000 </r>
       <r>   -4.4701    1.0000 </r>
       <r>   -4.3648    1.0000 </r>
       <r>   -4.0510    1.0000 </r>
       <r>   -4.0284    1.0000 </r>
       <r>   -3.9997    1.0000 </r>
       <r>   -3.9034    1.0000 </r>
       <r>   -3.8019    1.0000 </r>
       <r>   -3.7388    1.0000 </r>
       <r>   -3.6783    1.0000 </r>
       <r>   -3.6287    1.0000 </r>
       <r>   -3.5018    1.0000 </r>
       <r>   -3.4579    1.0000 </r>
       <r>   -3.4062    1.0000 </r>
       <r>   -3.3796    1.0000 </r>
       <r>   -3.2434    1.0000 </r>
       <r>   -3.0724    1.0000 </r>
       <r>   -2.9011    1.0000 </r>
       <r>   -2.8425    1.0000 </r>
       <r>   -2.6858    1.0000 </r>
       <r>   -2.6361    1.0000 </r>
       <r>   -2.5760    1.0000 </r>
       <r>   -2.4600    1.0000 </r>
       <r>   -2.3366    1.0000 </r>
       <r>   -2.2434    1.0000 </r>
       <r>   -2.2003    1.0000 </r>
       <r>   -2.1795    1.0000 </r>
       <r>   -2.0975    1.0000 </r>
       <r>   -2.0516    1.0000 </r>
       <r>   -1.9653    1.0000 </r>
       <r>   -1.7990    1.0000 </r>
       <r>    0.3349    0.0000 </r>
       <r>    0.4054    0.0000 </r>
       <r>    0.4681    0.0000 </r>
       <r>    0.4780    0.0000 </r>
       <r>    0.5342    0.0000 </r>
       <r>    0.5902    0.0000 </r>
       <r>    0.6103    0.0000 </r>
       <r>    0.6331    0.0000 </r>
       <r>    0.7421    0.0000 </r>
       <r>    0.8119    0.0000 </r>
       <r>    0.8398    0.0000 </r>
       <r>    0.8875    0.0000 </r>
       <r>    0.9155    0.0000 </r>
       <r>    0.9540    0.0000 </r>
       <r>    0.9755    0.0000 </r>
       <r>    1.0012    0.0000 </r>
       <r>    1.0871    0.0000 </r>
       <r>    1.1071    0.0000 </r>
       <r>    1.1270    0.0000 </r>
       <r>    1.2079    0.0000 </r>
       <r>    1.2739    0.0000 </r>
       <r>    1.3841    0.0000 </r>
       <r>    1.4869    0.0000 </r>
      </set>
      <set comment="kpoint 9">
       <r>  -62.5005    1.0000 </r>
       <r>  -62.4858    1.0000 </r>
       <r>  -62.4798    1.0000 </r>
       <r>  -62.4757    1.0000 </r>
       <r>  -62.4688    1.0000 </r>
       <r>  -62.4631    1.0000 </r>
       <r>  -62.4626    1.0000 </r>
       <r>  -62.4551    1.0000 </r>
       <r>  -62.4506    1.0000 </r>
       <r>  -36.7918    1.0000 </r>
       <r>  -36.7868    1.0000 </r>
       <r>  -36.7660    1.0000 </r>
       <r>  -36.7450    1.0000 </r>
       <r>  -36.7227    1.0000 </r>
       <r>  -36.7184    1.0000 </r>
       <r>  -36.6420    1.0000 </r>
       <r>  -36.6371    1.0000 </r>
       <r>  -36.6334    1.0000 </r>
       <r>  -36.6280    1.0000 </r>
       <r>  -36.6190    1.0000 </r>
       <r>  -36.6100    1.0000 </r>
       <r>  -36.6013    1.0000 </r>
       <r>  -36.5873    1.0000 </r>
       <r>  -36.5823    1.0000 </r>
       <r>  -36.5758    1.0000 </r>
       <r>  -36.5692    1.0000 </r>
       <r>  -36.5612    1.0000 </r>
       <r>  -36.5560    1.0000 </r>
       <r>  -36.5336    1.0000 </r>
       <r>  -36.5306    1.0000 </r>
       <r>  -36.5230    1.0000 </r>
       <r>  -36.5179    1.0000 </r>
[...]
       <r>   -5.3769    1.0000 </r>
       <r>   -5.2762    1.0000 </r>
       <r>   -5.1213    1.0000 </r>
       <r>   -5.0029    1.0000 </r>
       <r>   -4.9788    1.0000 </r>
       <r>   -4.8995    1.0000 </r>
       <r>   -4.8535    1.0000 </r>
       <r>   -4.8420    1.0000 </r>
       <r>   -4.7922    1.0000 </r>
       <r>   -4.7640    1.0000 </r>
       <r>   -4.6927    1.0000 </r>
       <r>   -4.5518    1.0000 </r>
       <r>   -4.5403    1.0000 </r>
       <r>   -4.0807    1.0000 </r>
       <r>   -4.0365    1.0000 </r>
       <r>   -4.0143    1.0000 </r>
       <r>   -3.9541    1.0000 </r>
       <r>   -3.9472    1.0000 </r>
       <r>   -3.8451    1.0000 </r>
       <r>   -3.7908    1.0000 </r>
       <r>   -3.6712    1.0000 </r>
       <r>   -3.6155    1.0000 </r>
       <r>   -3.5821    1.0000 </r>
       <r>   -3.4783    1.0000 </r>
       <r>   -3.3787    1.0000 </r>
       <r>   -3.3380    1.0000 </r>
       <r>   -3.2942    1.0000 </r>
       <r>   -3.2757    1.0000 </r>
       <r>   -2.7811    1.0000 </r>
       <r>   -2.6828    1.0000 </r>
       <r>   -2.6502    1.0000 </r>
       <r>   -2.6372    1.0000 </r>
       <r>   -2.6060    1.0000 </r>
       <r>   -2.4716    1.0000 </r>
       <r>   -2.3887    1.0000 </r>
       <r>   -2.2705    1.0000 </r>
       <r>   -2.2063    1.0000 </r>
       <r>   -2.1521    1.0000 </r>
       <r>   -2.1062    1.0000 </r>
       <r>   -2.0900    1.0000 </r>
       <r>   -1.9130    1.0000 </r>
       <r>   -1.8297    1.0000 </r>
       <r>    0.2634    0.0000 </r>
       <r>    0.3252    0.0000 </r>
       <r>    0.5120    0.0000 </r>
       <r>    0.5543    0.0000 </r>
       <r>    0.5650    0.0000 </r>
       <r>    0.5906    0.0000 </r>
       <r>    0.6071    0.0000 </r>
       <r>    0.6713    0.0000 </r>
       <r>    0.7217    0.0000 </r>
       <r>    0.7836    0.0000 </r>
       <r>    0.8637    0.0000 </r>
       <r>    0.8798    0.0000 </r>
       <r>    0.9461    0.0000 </r>
       <r>    1.0001    0.0000 </r>
       <r>    1.0189    0.0000 </r>
       <r>    1.0511    0.0000 </r>
       <r>    1.0940    0.0000 </r>
       <r>    1.1331    0.0000 </r>
       <r>    1.1455    0.0000 </r>
       <r>    1.1753    0.0000 </r>
       <r>    1.1909    0.0000 </r>
       <r>    1.2080    0.0000 </r>
       <r>    1.6799    0.0000 </r>
      </set>
     </set>
    </set>
   </array>
  </eigenvalues>
  <separator name="orbital magnetization" >
   <v name="MAGDIPOLOUT">      0.00000000      0.00000000      0.00000000</v>
  </separator>
  <dos>
   <i name="efermi">     -1.33751178 </i>
   <total>
    <array>
     <dimension dim="1">gridpoints</dimension>
     <dimension dim="2">spin</dimension>
     <field>energy</field>
     <field>total</field>
     <field>integrated</field>
     <set>
      <set comment="spin 1">
       <r>   -65.7156     0.0000     0.0000 </r>
       <r>   -65.4800     0.0000     0.0000 </r>
       <r>   -65.2444     0.0000     0.0000 </r>
       <r>   -65.0088     0.0000     0.0000 </r>
       <r>   -64.7732     0.0000     0.0000 </r>
       <r>   -64.5376     0.0000     0.0000 </r>
       <r>   -64.3020     0.0000     0.0000 </r>
       <r>   -64.0664     0.0000     0.0000 </r>
       <r>   -63.8308     0.0000     0.0000 </r>
       <r>   -63.5952     0.0000     0.0000 </r>
       <r>   -63.3596     0.0000     0.0000 </r>
       <r>   -63.1240     0.0000     0.0000 </r>
       <r>   -62.8884     0.0000     0.0000 </r>
       <r>   -62.6528     0.0001     0.0000 </r>
       <r>   -62.4172    70.4053    16.5876 </r>
       <r>   -62.1816     5.9948    18.0000 </r>
       <r>   -61.9460     0.0000    18.0000 </r>
       <r>   -61.7104     0.0000    18.0000 </r>
       <r>   -61.4748     0.0000    18.0000 </r>
       <r>   -61.2392     0.0000    18.0000 </r>
       <r>   -61.0036     0.0000    18.0000 </r>
       <r>   -60.7680     0.0000    18.0000 </r>
       <r>   -60.5324     0.0000    18.0000 </r>
       <r>   -60.2968     0.0000    18.0000 </r>
       <r>   -60.0612     0.0000    18.0000 </r>
       <r>   -59.8256     0.0000    18.0000 </r>
       <r>   -59.5900     0.0000    18.0000 </r>
       <r>   -59.3544     0.0000    18.0000 </r>
       <r>   -59.1188     0.0000    18.0000 </r>
       <r>   -58.8832     0.0000    18.0000 </r>
       <r>   -58.6476     0.0000    18.0000 </r>
       <r>   -58.4120     0.0000    18.0000 </r>
       <r>   -58.1764     0.0000    18.0000 </r>
       <r>   -57.9408     0.0000    18.0000 </r>
       <r>   -57.7052     0.0000    18.0000 </r>
       <r>   -57.4696     0.0000    18.0000 </r>
       <r>   -57.2340     0.0000    18.0000 </r>
       <r>   -56.9984     0.0000    18.0000 </r>
       <r>   -56.7628     0.0000    18.0000 </r>
       <r>   -56.5272     0.0000    18.0000 </r>
       <r>   -56.2916     0.0000    18.0000 </r>
       <r>   -56.0560     0.0000    18.0000 </r>
       <r>   -55.8204     0.0000    18.0000 </r>
       <r>   -55.5847     0.0000    18.0000 </r>
       <r>   -55.3491     0.0000    18.0000 </r>
       <r>   -55.1135     0.0000    18.0000 </r>
       <r>   -54.8779     0.0000    18.0000 </r>
       <r>   -54.6423     0.0000    18.0000 </r>
       <r>   -54.4067     0.0000    18.0000 </r>
       <r>   -54.1711     0.0000    18.0000 </r>
       <r>   -53.9355     0.0000    18.0000 </r>
       <r>   -53.6999     0.0000    18.0000 </r>
       <r>   -53.4643     0.0000    18.0000 </r>
       <r>   -53.2287     0.0000    18.0000 </r>
       <r>   -52.9931     0.0000    18.0000 </r>
       <r>   -52.7575     0.0000    18.0000 </r>
       <r>   -52.5219     0.0000    18.0000 </r>
       <r>   -52.2863     0.0000    18.0000 </r>
       <r>   -52.0507     0.0000    18.0000 </r>
       <r>   -51.8151     0.0000    18.0000 </r>
       <r>   -51.5795     0.0000    18.0000 </r>
       <r>   -51.3439     0.0000    18.0000 </r>
       <r>   -51.1083     0.0000    18.0000 </r>
       <r>   -50.8727     0.0000    18.0000 </r>
       <r>   -50.6371     0.0000    18.0000 </r>
       <r>   -50.4015     0.0000    18.0000 </r>
       <r>   -50.1659     0.0000    18.0000 </r>
       <r>   -49.9303     0.0000    18.0000 </r>
       <r>   -49.6947     0.0000    18.0000 </r>
       <r>   -49.4591     0.0000    18.0000 </r>
       <r>   -49.2235     0.0000    18.0000 </r>
       <r>   -48.9879     0.0000    18.0000 </r>
       <r>   -48.7523     0.0000    18.0000 </r>
       <r>   -48.5167     0.0000    18.0000 </r>
       <r>   -48.2811     0.0000    18.0000 </r>
       <r>   -48.0455     0.0000    18.0000 </r>
       <r>   -47.8099     0.0000    18.0000 </r>
       <r>   -47.5743     0.0000    18.0000 </r>
       <r>   -47.3387     0.0000    18.0000 </r>
       <r>   -47.1031     0.0000    18.0000 </r>
       <r>   -46.8675     0.0000    18.0000 </r>
       <r>   -46.6319     0.0000    18.0000 </r>
       <r>   -46.3963     0.0000    18.0000 </r>
       <r>   -46.1607     0.0000    18.0000 </r>
       <r>   -45.9251     0.0000    18.0000 </r>
       <r>   -45.6895     0.0000    18.0000 </r>
       <r>   -45.4539     0.0000    18.0000 </r>
       <r>   -45.2183     0.0000    18.0000 </r>
       <r>   -44.9827     0.0000    18.0000 </r>
       <r>   -44.7471     0.0000    18.0000 </r>
       <r>   -44.5115     0.0000    18.0000 </r>
       <r>   -44.2759     0.0000    18.0000 </r>
       <r>   -44.0403     0.0000    18.0000 </r>
       <r>   -43.8047     0.0000    18.0000 </r>
       <r>   -43.5691     0.0000    18.0000 </r>
       <r>   -43.3335     0.0000    18.0000 </r>
       <r>   -43.0979     0.0000    18.0000 </r>
       <r>   -42.8623     0.0000    18.0000 </r>
       <r>   -42.6267     0.0000    18.0000 </r>
       <r>   -42.3911     0.0000    18.0000 </r>
       <r>   -42.1555     0.0000    18.0000 </r>
       <r>   -41.9199     0.0000    18.0000 </r>
       <r>   -41.6843     0.0000    18.0000 </r>
       <r>   -41.4487     0.0000    18.0000 </r>
       <r>   -41.2131     0.0000    18.0000 </r>
       <r>   -40.9775     0.0000    18.0000 </r>
       <r>   -40.7419     0.0000    18.0000 </r>
       <r>   -40.5063     0.0000    18.0000 </r>
       <r>   -40.2707     0.0000    18.0000 </r>
       <r>   -40.0351     0.0000    18.0000 </r>
       <r>   -39.7995     0.0000    18.0000 </r>
       <r>   -39.5638     0.0000    18.0000 </r>
       <r>   -39.3282     0.0000    18.0000 </r>
       <r>   -39.0926     0.0000    18.0000 </r>
       <r>   -38.8570     0.0000    18.0000 </r>
       <r>   -38.6214     0.0000    18.0000 </r>
       <r>   -38.3858     0.0000    18.0000 </r>
       <r>   -38.1502     0.0000    18.0000 </r>
       <r>   -37.9146     0.0000    18.0000 </r>
       <r>   -37.6790     0.0000    18.0000 </r>
       <r>   -37.4434     0.0000    18.0000 </r>
       <r>   -37.2078     0.0000    18.0000 </r>
       <r>   -36.9722     0.0000    18.0000 </r>
       <r>   -36.7366    33.6157    25.9199 </r>
       <r>   -36.5010   162.4085    64.1836 </r>
       <r>   -36.2654    33.1763    72.0000 </r>
       <r>   -36.0298     0.0000    72.0000 </r>
       <r>   -35.7942     0.0000    72.0000 </r>
       <r>   -35.5586     0.0000    72.0000 </r>
       <r>   -35.3230     0.0000    72.0000 </r>
       <r>   -35.0874     0.0000    72.0000 </r>
       <r>   -34.8518     0.0000    72.0000 </r>
       <r>   -34.6162     0.0000    72.0000 </r>
       <r>   -34.3806     0.0000    72.0000 </r>
       <r>   -34.1450     0.0000    72.0000 </r>
       <r>   -33.9094     0.0000    72.0000 </r>
       <r>   -33.6738     0.0000    72.0000 </r>
       <r>   -33.4382     0.0000    72.0000 </r>
       <r>   -33.2026     0.0000    72.0000 </r>
       <r>   -32.9670     0.0000    72.0000 </r>
       <r>   -32.7314     0.0000    72.0000 </r>
       <r>   -32.4958     0.0000    72.0000 </r>
       <r>   -32.2602     0.0000    72.0000 </r>
       <r>   -32.0246     0.0000    72.0000 </r>
       <r>   -31.7890     0.0000    72.0000 </r>
       <r>   -31.5534     0.0000    72.0000 </r>
       <r>   -31.3178     0.0000    72.0000 </r>
       <r>   -31.0822     0.0000    72.0000 </r>
       <r>   -30.8466     0.0000    72.0000 </r>
       <r>   -30.6110     0.0000    72.0000 </r>
       <r>   -30.3754     0.0000    72.0000 </r>
       <r>   -30.1398     0.0000    72.0000 </r>
       <r>   -29.9042     0.0000    72.0000 </r>
       <r>   -29.6686     0.0000    72.0000 </r>
       <r>   -29.4330     0.0000    72.0000 </r>
       <r>   -29.1974     0.0000    72.0000 </r>
       <r>   -28.9618     0.0000    72.0000 </r>
       <r>   -28.7262     0.0000    72.0000 </r>
       <r>   -28.4906     0.0000    72.0000 </r>
       <r>   -28.2550     0.0000    72.0000 </r>
       <r>   -28.0194     0.0000    72.0000 </r>
       <r>   -27.7838     0.0000    72.0000 </r>
       <r>   -27.5482     0.0000    72.0000 </r>
       <r>   -27.3126     0.0000    72.0000 </r>
       <r>   -27.0770     0.0000    72.0000 </r>
       <r>   -26.8414     0.0000    72.0000 </r>
       <r>   -26.6058     0.0000    72.0000 </r>
       <r>   -26.3702     0.0000    72.0000 </r>
       <r>   -26.1346     0.0000    72.0000 </r>
       <r>   -25.8990     0.0000    72.0000 </r>
       <r>   -25.6634     0.0000    72.0000 </r>
       <r>   -25.4278     0.0000    72.0000 </r>
       <r>   -25.1922     0.0000    72.0000 </r>
       <r>   -24.9566     0.0000    72.0000 </r>
       <r>   -24.7210     0.0000    72.0000 </r>
       <r>   -24.4854     0.0000    72.0000 </r>
       <r>   -24.2498     0.0000    72.0000 </r>
       <r>   -24.0142     0.0000    72.0000 </r>
       <r>   -23.7786     0.0000    72.0000 </r>
       <r>   -23.5430     0.0000    72.0000 </r>
       <r>   -23.3073     0.0000    72.0000 </r>
       <r>   -23.0717     0.0000    72.0000 </r>
       <r>   -22.8361     0.0000    72.0000 </r>
       <r>   -22.6005     0.0000    72.0000 </r>
       <r>   -22.3649     0.0000    72.0000 </r>
       <r>   -22.1293     0.0000    72.0000 </r>
       <r>   -21.8937     0.0000    72.0000 </r>
       <r>   -21.6581     0.0000    72.0000 </r>
       <r>   -21.4225     0.0000    72.0000 </r>
       <r>   -21.1869     0.0000    72.0000 </r>
       <r>   -20.9513     0.0000    72.0000 </r>
       <r>   -20.7157     0.0000    72.0000 </r>
       <r>   -20.4801     0.0000    72.0000 </r>
       <r>   -20.2445     0.0000    72.0000 </r>
       <r>   -20.0089     0.0000    72.0000 </r>
       <r>   -19.7733     0.0000    72.0000 </r>
       <r>   -19.5377     0.0000    72.0000 </r>
       <r>   -19.3021     0.0000    72.0000 </r>
       <r>   -19.0665     0.0000    72.0000 </r>
       <r>   -18.8309     0.0000    72.0000 </r>
       <r>   -18.5953     0.0000    72.0000 </r>
       <r>   -18.3597     0.0000    72.0000 </r>
       <r>   -18.1241     0.0000    72.0000 </r>
       <r>   -17.8885     0.0000    72.0000 </r>
       <r>   -17.6529     0.0000    72.0000 </r>
       <r>   -17.4173     0.0000    72.0000 </r>
       <r>   -17.1817     0.0000    72.0000 </r>
       <r>   -16.9461     0.0000    72.0000 </r>
       <r>   -16.7105     0.0000    72.0000 </r>
       <r>   -16.4749     0.0000    72.0000 </r>
       <r>   -16.2393     0.0000    72.0000 </r>
       <r>   -16.0037     0.0000    72.0000 </r>
       <r>   -15.7681     0.1095    72.0258 </r>
       <r>   -15.5325     4.1484    73.0032 </r>
       <r>   -15.2969     4.4691    74.0561 </r>
       <r>   -15.0613     5.2382    75.2902 </r>
       <r>   -14.8257     6.0447    76.7144 </r>
       <r>   -14.5901     6.7586    78.3067 </r>
       <r>   -14.3545     9.9407    80.6488 </r>
       <r>   -14.1189    20.9123    85.5757 </r>
       <r>   -13.8833    31.3001    92.9501 </r>
       <r>   -13.6477    43.0573   103.0944 </r>
       <r>   -13.4121    20.8074   107.9967 </r>
       <r>   -13.1765     0.0141   108.0000 </r>
       <r>   -12.9409     0.0000   108.0000 </r>
       <r>   -12.7053     0.0000   108.0000 </r>
       <r>   -12.4697     0.0000   108.0000 </r>
       <r>   -12.2341     0.0000   108.0000 </r>
       <r>   -11.9985     0.0000   108.0000 </r>
       <r>   -11.7629     0.0000   108.0000 </r>
       <r>   -11.5273     0.0000   108.0000 </r>
       <r>   -11.2917     0.0000   108.0000 </r>
       <r>   -11.0561     0.0000   108.0000 </r>
       <r>   -10.8205     0.0000   108.0000 </r>
       <r>   -10.5849     0.0000   108.0000 </r>
       <r>   -10.3493     0.0000   108.0000 </r>
       <r>   -10.1137     0.0000   108.0000 </r>
       <r>    -9.8781     0.0000   108.0000 </r>
       <r>    -9.6425     0.0000   108.0000 </r>
       <r>    -9.4069     0.0000   108.0000 </r>
       <r>    -9.1713     0.0000   108.0000 </r>
       <r>    -8.9357     0.0000   108.0000 </r>
       <r>    -8.7001     0.0000   108.0000 </r>
       <r>    -8.4645     0.0000   108.0000 </r>
       <r>    -8.2289     0.0000   108.0000 </r>
       <r>    -7.9933     0.0000   108.0000 </r>
       <r>    -7.7577     0.0000   108.0000 </r>
       <r>    -7.5221     0.0014   108.0003 </r>
       <r>    -7.2864     5.4243   109.2783 </r>
       <r>    -7.0508    15.1646   112.8511 </r>
       <r>    -6.8152    28.2061   119.4965 </r>
       <r>    -6.5796    35.6271   127.8903 </r>
       <r>    -6.3440    17.4310   131.9971 </r>
       <r>    -6.1084    12.1523   134.8602 </r>
       <r>    -5.8728     5.3729   136.1260 </r>
       <r>    -5.6372    16.1266   139.9255 </r>
       <r>    -5.4016    47.1206   151.0272 </r>
       <r>    -5.1660    20.3555   155.8229 </r>
       <r>    -4.9304    17.4228   159.9278 </r>
       <r>    -4.6948    39.0938   169.1384 </r>
       <r>    -4.4592    27.0685   175.5157 </r>
       <r>    -4.2236    13.2837   178.6454 </r>
       <r>    -3.9880    17.7985   182.8388 </r>
       <r>    -3.7524    13.9947   186.1359 </r>
       <r>    -3.5168    25.3418   192.1065 </r>
       <r>    -3.2812    38.1456   201.0937 </r>
       <r>    -3.0456    20.6790   205.9657 </r>
       <r>    -2.8100    20.8986   210.8894 </r>
       <r>    -2.5744    20.2915   215.6701 </r>
       <r>    -2.3388    26.7091   221.9628 </r>
       <r>    -2.1032    22.8525   227.3469 </r>
       <r>    -1.8676    16.0805   231.1355 </r>
       <r>    -1.6320    10.2130   233.5417 </r>
       <r>    -1.3964     1.9453   234.0000 </r>
       <r>    -1.1608     0.0000   234.0000 </r>
       <r>    -0.9252     0.0000   234.0000 </r>
       <r>    -0.6896     0.0000   234.0000 </r>
       <r>    -0.4540     0.0000   234.0000 </r>
       <r>    -0.2184     0.0000   234.0000 </r>
       <r>     0.0172     0.3944   234.0929 </r>
       <r>     0.2528     4.0222   235.0406 </r>
       <r>     0.4884    26.2657   241.2288 </r>
       <r>     0.7240    42.3821   251.2141 </r>
       <r>     0.9596    43.0541   261.3577 </r>
       <r>     1.1952    37.8972   270.2863 </r>
       <r>     1.4308    23.0426   275.7152 </r>
       <r>     1.6664    17.2712   279.7843 </r>
       <r>     1.9020     0.9154   280.0000 </r>
       <r>     2.1376     0.0000   280.0000 </r>
       <r>     2.3732     0.0000   280.0000 </r>
       <r>     2.6088     0.0000   280.0000 </r>
       <r>     2.8444     0.0000   280.0000 </r>
       <r>     3.0800     0.0000   280.0000 </r>
       <r>     3.3156     0.0000   280.0000 </r>
       <r>     3.5512     0.0000   280.0000 </r>
       <r>     3.7868     0.0000   280.0000 </r>
       <r>     4.0224     0.0000   280.0000 </r>
       <r>     4.2580     0.0000   280.0000 </r>
       <r>     4.4936     0.0000   280.0000 </r>
       <r>     4.7292     0.0000   280.0000 </r>
       <r>     4.9648     0.0000   280.0000 </r>
      </set>
     </set>
    </array>
   </total>
  </dos>
 </calculation>
 <structure name="finalpos" >
  <crystal>
   <varray name="basis" >
    <v>       9.55219900       0.00000000       0.00000000 </v>
    <v>      -4.77610000       8.27244700       0.00000000 </v>
    <v>       0.00000000       0.00000000      18.12711300 </v>
   </varray>
   <i name="volume">   1432.40555618 </i>
   <varray name="rec_basis" >
    <v>       0.10468794       0.06044161      -0.00000000 </v>
    <v>       0.00000000       0.12088322       0.00000000 </v>
    <v>       0.00000000      -0.00000000       0.05516598 </v>
   </varray>
  </crystal>
  <varray name="positions" >
   <v>       0.00113632       0.00177469       0.50095032 </v>
   <v>       0.33526567       0.33989951       0.49796008 </v>
   <v>       0.67045695       0.00128385       0.49874280 </v>
   <v>       0.33138792       0.99781328       0.50002353 </v>
   <v>       0.33594195       0.66365290       0.50181130 </v>
   <v>       0.66156931       0.33207911       0.49887519 </v>
   <v>       0.99318272       0.33187865       0.49898755 </v>
   <v>       0.66879735       0.66716462       0.50241853 </v>
   <v>       0.00388098       0.66482120       0.50016632 </v>
   <v>       0.55068243       0.11094319       0.58214564 </v>
   <v>       0.22933204       0.12157827       0.58528918 </v>
   <v>       0.22364900       0.11439612       0.41635080 </v>
   <v>       0.21936936       0.44263474       0.58654727 </v>
   <v>       0.21641781       0.44246494       0.41326659 </v>
   <v>       0.22754913       0.77541156       0.58359604 </v>
   <v>       0.22451771       0.77722201       0.41703288 </v>
   <v>       0.55286553       0.11258065       0.41196793 </v>
   <v>       0.55076112       0.76735566       0.41430953 </v>
   <v>       0.55543628       0.44667788       0.58664402 </v>
   <v>       0.55756097       0.77768710       0.58733008 </v>
   <v>       0.55549641       0.45179071       0.41288293 </v>
   <v>       0.88693879       0.10972217       0.58882291 </v>
   <v>       0.89042713       0.11141482       0.41493798 </v>
   <v>       0.88599425       0.44112557       0.58450953 </v>
   <v>       0.88439472       0.43960655       0.41497557 </v>
   <v>       0.89421899       0.77710659       0.58586752 </v>
   <v>       0.88954382       0.77918102       0.41371616 </v>
  </varray>
 </structure>
</modeling>
