<?xml version="1.0" encoding="ISO-8859-1"?>
<modeling>
 <generator>
  <i name="program" type="string">vasp </i>
  <i name="version" type="string">6.2.0  </i>
  <i name="subversion" type="string">18Jan21 (build Mar 25 2021 14:28:09) complex                          parallel </i>
  <i name="platform" type="string">LinuxGNU </i>
  <i name="date" type="string">2022 08 19 </i>
  <i name="time" type="string">07:29:33 </i>
 </generator>
 <incar>
  <i type="string" name="SYSTEM">al</i>
  <i type="int" name="ISTART">     0</i>
  <i type="string" name="PREC">Accurate</i>
  <i type="string" name="ALGO">Normal</i>
  <i type="int" name="NSIM">     8</i>
  <i type="int" name="NELM">   200</i>
  <i type="int" name="IBRION">    -1</i>
  <i name="EDIFF">      0.00000100</i>
  <i type="int" name="NSW">     0</i>
  <i name="ENCUT">    600.00000000</i>
  <i type="string" name="LREAL">Auto</i>
  <i type="int" name="ISMEAR">     0</i>
  <i name="SIGMA">      0.05000000</i>
  <i type="int" name="LMAXPAW">    -1</i>
  <i type="logical" name="LWAVE"> F  </i>
  <i type="logical" name="LCHARG"> T  </i>
  <i type="string" name="GGA">PE</i>
 </incar>
 <primitive_cell>
  <structure name="primitive_cell" >
   <crystal>
    <varray name="basis" >
     <v>       8.07809510       0.00000000       0.00000000 </v>
     <v>       0.00000000       8.07809510       0.00000000 </v>
     <v>       0.00000000       0.00000000       8.07809510 </v>
    </varray>
    <i name="volume">    527.14110776 </i>
    <varray name="rec_basis" >
     <v>       0.12379156       0.00000000       0.00000000 </v>
     <v>       0.00000000       0.12379156       0.00000000 </v>
     <v>       0.00000000       0.00000000       0.12379156 </v>
    </varray>
   </crystal>
   <varray name="positions" >
    <v>       0.00811914       0.99060512       0.00949287 </v>
    <v>       0.01166023       0.26620066       0.26255250 </v>
    <v>       0.25002743       0.00572336       0.25679003 </v>
    <v>       0.22775729       0.24974628       0.99534362 </v>
    <v>       0.99326722       0.00513544       0.49063917 </v>
    <v>       0.98250102       0.24079381       0.75223119 </v>
    <v>       0.26192163       0.98932098       0.74118790 </v>
    <v>       0.23534450       0.25991068       0.51618638 </v>
    <v>       0.00024990       0.50808705       0.98447215 </v>
    <v>       0.97341968       0.75249351       0.22753104 </v>
    <v>       0.25949474       0.51535820       0.24347528 </v>
    <v>       0.27378326       0.75728492       0.02412920 </v>
    <v>       0.99493941       0.50059204       0.50530089 </v>
    <v>       0.00703001       0.74592214       0.74713007 </v>
    <v>       0.24629343       0.49182844       0.74151624 </v>
    <v>       0.24518547       0.75345356       0.49855244 </v>
    <v>       0.49691691       0.00700458       0.98619897 </v>
    <v>       0.49901902       0.24354638       0.24945449 </v>
    <v>       0.73472057       0.00038910       0.22865566 </v>
    <v>       0.76489780       0.23469910       0.00349231 </v>
    <v>       0.50730304       0.99544513       0.47540259 </v>
    <v>       0.50123168       0.24315046       0.72987310 </v>
    <v>       0.76289304       0.00021208       0.74313171 </v>
    <v>       0.75629086       0.24952125       0.48317716 </v>
    <v>       0.49629521       0.47450270       0.00722677 </v>
    <v>       0.50989472       0.74438127       0.24842186 </v>
    <v>       0.76379729       0.50466980       0.25400580 </v>
    <v>       0.73821428       0.75647207       0.98606261 </v>
    <v>       0.48815399       0.49091162       0.50160649 </v>
    <v>       0.49856373       0.73815909       0.74625901 </v>
    <v>       0.74044328       0.50211951       0.76302481 </v>
    <v>       0.76098626       0.74973176       0.50687765 </v>
   </varray>
  </structure>
  <varray name="primitive_index" >
   <v type="int" >        1 </v>
   <v type="int" >        2 </v>
   <v type="int" >        3 </v>
   <v type="int" >        4 </v>
   <v type="int" >        5 </v>
   <v type="int" >        6 </v>
   <v type="int" >        7 </v>
   <v type="int" >        8 </v>
   <v type="int" >        9 </v>
   <v type="int" >       10 </v>
   <v type="int" >       11 </v>
   <v type="int" >       12 </v>
   <v type="int" >       13 </v>
   <v type="int" >       14 </v>
   <v type="int" >       15 </v>
   <v type="int" >       16 </v>
   <v type="int" >       17 </v>
   <v type="int" >       18 </v>
   <v type="int" >       19 </v>
   <v type="int" >       20 </v>
   <v type="int" >       21 </v>
   <v type="int" >       22 </v>
   <v type="int" >       23 </v>
   <v type="int" >       24 </v>
   <v type="int" >       25 </v>
   <v type="int" >       26 </v>
   <v type="int" >       27 </v>
   <v type="int" >       28 </v>
   <v type="int" >       29 </v>
   <v type="int" >       30 </v>
   <v type="int" >       31 </v>
   <v type="int" >       32 </v>
  </varray>
 </primitive_cell>
 <kpoints>
  <generation param="Gamma">
   <v type="int" name="divisions">       9        9        9 </v>
   <v name="usershift">      0.00000000       0.00000000       0.00000000 </v>
   <v name="genvec1">      0.11111111       0.00000000       0.00000000 </v>
   <v name="genvec2">      0.00000000       0.11111111       0.00000000 </v>
   <v name="genvec3">      0.00000000       0.00000000       0.11111111 </v>
   <v name="shift">      0.00000000       0.00000000       0.00000000 </v>
  </generation>
  <varray name="kpointlist" >
   <v>       0.00000000       0.00000000       0.00000000 </v>
   <v>       0.11111111       0.00000000       0.00000000 </v>
   <v>       0.00000000       0.11111111       0.00000000 </v>
   <v>       0.00000000       0.00000000       0.11111111 </v>
   <v>       0.22222222       0.00000000       0.00000000 </v>
   <v>       0.00000000       0.22222222       0.00000000 </v>
   <v>       0.00000000       0.00000000       0.22222222 </v>
   <v>       0.33333333       0.00000000       0.00000000 </v>
   <v>       0.00000000       0.33333333       0.00000000 </v>
   <v>       0.00000000       0.00000000       0.33333333 </v>
   <v>       0.44444444       0.00000000       0.00000000 </v>
   <v>       0.00000000       0.44444444       0.00000000 </v>
   <v>       0.00000000       0.00000000       0.44444444 </v>
   <v>       0.11111111       0.11111111       0.00000000 </v>
   <v>       0.00000000       0.11111111       0.11111111 </v>
   <v>       0.11111111       0.00000000       0.11111111 </v>
   <v>      -0.11111111       0.11111111       0.00000000 </v>
   <v>      -0.11111111       0.00000000       0.11111111 </v>
   <v>       0.00000000      -0.11111111       0.11111111 </v>
   <v>       0.22222222       0.11111111       0.00000000 </v>
   <v>       0.00000000       0.22222222       0.11111111 </v>
   <v>       0.11111111       0.00000000       0.22222222 </v>
   <v>      -0.11111111       0.22222222       0.00000000 </v>
   <v>      -0.22222222       0.00000000       0.11111111 </v>
   <v>       0.00000000       0.11111111       0.22222222 </v>
   <v>       0.00000000      -0.22222222       0.11111111 </v>
   <v>      -0.11111111       0.00000000       0.22222222 </v>
   <v>       0.22222222       0.00000000       0.11111111 </v>
   <v>       0.00000000      -0.11111111       0.22222222 </v>
   <v>       0.22222222      -0.11111111       0.00000000 </v>
   <v>       0.11111111       0.22222222       0.00000000 </v>
   <v>       0.33333333       0.11111111       0.00000000 </v>
   <v>       0.00000000       0.33333333       0.11111111 </v>
   <v>       0.11111111       0.00000000       0.33333333 </v>
   <v>      -0.11111111       0.33333333       0.00000000 </v>
   <v>      -0.33333333       0.00000000       0.11111111 </v>
   <v>       0.00000000       0.11111111       0.33333333 </v>
   <v>       0.00000000      -0.33333333       0.11111111 </v>
   <v>      -0.11111111       0.00000000       0.33333333 </v>
   <v>       0.33333333       0.00000000       0.11111111 </v>
   <v>       0.00000000      -0.11111111       0.33333333 </v>
   <v>       0.33333333      -0.11111111       0.00000000 </v>
   <v>       0.11111111       0.33333333       0.00000000 </v>
   <v>       0.44444444       0.11111111       0.00000000 </v>
   <v>       0.00000000       0.44444444       0.11111111 </v>
   <v>       0.11111111       0.00000000       0.44444444 </v>
   <v>      -0.11111111       0.44444444       0.00000000 </v>
   <v>      -0.44444444       0.00000000       0.11111111 </v>
   <v>       0.00000000       0.11111111       0.44444444 </v>
   <v>       0.00000000      -0.44444444       0.11111111 </v>
   <v>      -0.11111111       0.00000000       0.44444444 </v>
   <v>       0.44444444       0.00000000       0.11111111 </v>
   <v>       0.00000000      -0.11111111       0.44444444 </v>
   <v>       0.44444444      -0.11111111       0.00000000 </v>
   <v>       0.11111111       0.44444444       0.00000000 </v>
   <v>       0.22222222       0.22222222       0.00000000 </v>
   <v>       0.00000000       0.22222222       0.22222222 </v>
   <v>       0.22222222       0.00000000       0.22222222 </v>
   <v>      -0.22222222       0.22222222       0.00000000 </v>
   <v>      -0.22222222       0.00000000       0.22222222 </v>
   <v>       0.00000000      -0.22222222       0.22222222 </v>
   <v>       0.33333333       0.22222222       0.00000000 </v>
   <v>       0.00000000       0.33333333       0.22222222 </v>
   <v>       0.22222222       0.00000000       0.33333333 </v>
   <v>      -0.22222222       0.33333333       0.00000000 </v>
   <v>      -0.33333333       0.00000000       0.22222222 </v>
   <v>       0.00000000       0.22222222       0.33333333 </v>
   <v>       0.00000000      -0.33333333       0.22222222 </v>
   <v>      -0.22222222       0.00000000       0.33333333 </v>
   <v>       0.33333333       0.00000000       0.22222222 </v>
   <v>       0.00000000      -0.22222222       0.33333333 </v>
   <v>       0.33333333      -0.22222222       0.00000000 </v>
   <v>       0.22222222       0.33333333       0.00000000 </v>
   <v>       0.44444444       0.22222222       0.00000000 </v>
   <v>       0.00000000       0.44444444       0.22222222 </v>
   <v>       0.22222222       0.00000000       0.44444444 </v>
   <v>      -0.22222222       0.44444444       0.00000000 </v>
   <v>      -0.44444444       0.00000000       0.22222222 </v>
   <v>       0.00000000       0.22222222       0.44444444 </v>
   <v>       0.00000000      -0.44444444       0.22222222 </v>
   <v>      -0.22222222       0.00000000       0.44444444 </v>
   <v>       0.44444444       0.00000000       0.22222222 </v>
   <v>       0.00000000      -0.22222222       0.44444444 </v>
   <v>       0.44444444      -0.22222222       0.00000000 </v>
   <v>       0.22222222       0.44444444       0.00000000 </v>
   <v>       0.33333333       0.33333333       0.00000000 </v>
   <v>       0.00000000       0.33333333       0.33333333 </v>
   <v>       0.33333333       0.00000000       0.33333333 </v>
   <v>      -0.33333333       0.33333333       0.00000000 </v>
   <v>      -0.33333333       0.00000000       0.33333333 </v>
   <v>       0.00000000      -0.33333333       0.33333333 </v>
   <v>       0.44444444       0.33333333       0.00000000 </v>
   <v>       0.00000000       0.44444444       0.33333333 </v>
   <v>       0.33333333       0.00000000       0.44444444 </v>
   <v>      -0.33333333       0.44444444       0.00000000 </v>
   <v>      -0.44444444       0.00000000       0.33333333 </v>
   <v>       0.00000000       0.33333333       0.44444444 </v>
   <v>       0.00000000      -0.44444444       0.33333333 </v>
   <v>      -0.33333333       0.00000000       0.44444444 </v>
   <v>       0.44444444       0.00000000       0.33333333 </v>
   <v>       0.00000000      -0.33333333       0.44444444 </v>
   <v>       0.44444444      -0.33333333       0.00000000 </v>
   <v>       0.33333333       0.44444444       0.00000000 </v>
   <v>       0.44444444       0.44444444       0.00000000 </v>
   <v>       0.00000000       0.44444444       0.44444444 </v>
   <v>       0.44444444       0.00000000       0.44444444 </v>
   <v>      -0.44444444       0.44444444       0.00000000 </v>
   <v>      -0.44444444       0.00000000       0.44444444 </v>
   <v>       0.00000000      -0.44444444       0.44444444 </v>
   <v>       0.11111111       0.11111111       0.11111111 </v>
   <v>      -0.11111111       0.11111111       0.11111111 </v>
   <v>      -0.11111111      -0.11111111       0.11111111 </v>
   <v>       0.11111111      -0.11111111       0.11111111 </v>
   <v>       0.22222222       0.11111111       0.11111111 </v>
   <v>       0.11111111       0.22222222       0.11111111 </v>
   <v>       0.11111111       0.11111111       0.22222222 </v>
   <v>      -0.11111111       0.22222222       0.11111111 </v>
   <v>      -0.22222222       0.11111111       0.11111111 </v>
   <v>      -0.11111111       0.11111111       0.22222222 </v>
   <v>      -0.22222222      -0.11111111       0.11111111 </v>
   <v>      -0.11111111      -0.22222222       0.11111111 </v>
   <v>      -0.11111111      -0.11111111       0.22222222 </v>
   <v>       0.11111111      -0.22222222       0.11111111 </v>
   <v>       0.22222222      -0.11111111       0.11111111 </v>
   <v>       0.11111111      -0.11111111       0.22222222 </v>
   <v>       0.33333333       0.11111111       0.11111111 </v>
   <v>       0.11111111       0.33333333       0.11111111 </v>
   <v>       0.11111111       0.11111111       0.33333333 </v>
   <v>      -0.11111111       0.33333333       0.11111111 </v>
   <v>      -0.33333333       0.11111111       0.11111111 </v>
   <v>      -0.11111111       0.11111111       0.33333333 </v>
   <v>      -0.33333333      -0.11111111       0.11111111 </v>
   <v>      -0.11111111      -0.33333333       0.11111111 </v>
   <v>      -0.11111111      -0.11111111       0.33333333 </v>
   <v>       0.11111111      -0.33333333       0.11111111 </v>
   <v>       0.33333333      -0.11111111       0.11111111 </v>
   <v>       0.11111111      -0.11111111       0.33333333 </v>
   <v>       0.44444444       0.11111111       0.11111111 </v>
   <v>       0.11111111       0.44444444       0.11111111 </v>
   <v>       0.11111111       0.11111111       0.44444444 </v>
   <v>      -0.11111111       0.44444444       0.11111111 </v>
   <v>      -0.44444444       0.11111111       0.11111111 </v>
   <v>      -0.11111111       0.11111111       0.44444444 </v>
   <v>      -0.44444444      -0.11111111       0.11111111 </v>
   <v>      -0.11111111      -0.44444444       0.11111111 </v>
   <v>      -0.11111111      -0.11111111       0.44444444 </v>
   <v>       0.11111111      -0.44444444       0.11111111 </v>
   <v>       0.44444444      -0.11111111       0.11111111 </v>
   <v>       0.11111111      -0.11111111       0.44444444 </v>
   <v>       0.22222222       0.22222222       0.11111111 </v>
   <v>       0.11111111       0.22222222       0.22222222 </v>
   <v>       0.22222222       0.11111111       0.22222222 </v>
   <v>      -0.22222222       0.22222222       0.11111111 </v>
   <v>      -0.22222222       0.11111111       0.22222222 </v>
   <v>      -0.11111111       0.22222222       0.22222222 </v>
   <v>      -0.22222222      -0.22222222       0.11111111 </v>
   <v>      -0.11111111      -0.22222222       0.22222222 </v>
   <v>      -0.22222222      -0.11111111       0.22222222 </v>
   <v>       0.22222222      -0.22222222       0.11111111 </v>
   <v>       0.22222222      -0.11111111       0.22222222 </v>
   <v>       0.11111111      -0.22222222       0.22222222 </v>
   <v>       0.33333333       0.22222222       0.11111111 </v>
   <v>       0.11111111       0.33333333       0.22222222 </v>
   <v>       0.22222222       0.11111111       0.33333333 </v>
   <v>      -0.22222222       0.33333333       0.11111111 </v>
   <v>      -0.33333333       0.11111111       0.22222222 </v>
   <v>      -0.11111111       0.22222222       0.33333333 </v>
   <v>      -0.33333333      -0.22222222       0.11111111 </v>
   <v>      -0.11111111      -0.33333333       0.22222222 </v>
   <v>      -0.22222222      -0.11111111       0.33333333 </v>
   <v>       0.22222222      -0.33333333       0.11111111 </v>
   <v>       0.33333333      -0.11111111       0.22222222 </v>
   <v>       0.11111111      -0.22222222       0.33333333 </v>
   <v>       0.11111111      -0.33333333      -0.22222222 </v>
   <v>       0.22222222      -0.11111111      -0.33333333 </v>
   <v>       0.33333333      -0.22222222      -0.11111111 </v>
   <v>       0.11111111       0.22222222      -0.33333333 </v>
   <v>       0.22222222       0.33333333      -0.11111111 </v>
   <v>       0.33333333       0.11111111      -0.22222222 </v>
   <v>      -0.22222222       0.11111111      -0.33333333 </v>
   <v>      -0.33333333       0.22222222      -0.11111111 </v>
   <v>      -0.11111111       0.33333333      -0.22222222 </v>
   <v>      -0.33333333      -0.11111111      -0.22222222 </v>
   <v>      -0.22222222      -0.33333333      -0.11111111 </v>
   <v>      -0.11111111      -0.22222222      -0.33333333 </v>
   <v>       0.44444444       0.22222222       0.11111111 </v>
   <v>       0.11111111       0.44444444       0.22222222 </v>
   <v>       0.22222222       0.11111111       0.44444444 </v>
   <v>      -0.22222222       0.44444444       0.11111111 </v>
   <v>      -0.44444444       0.11111111       0.22222222 </v>
   <v>      -0.11111111       0.22222222       0.44444444 </v>
   <v>      -0.44444444      -0.22222222       0.11111111 </v>
   <v>      -0.11111111      -0.44444444       0.22222222 </v>
   <v>      -0.22222222      -0.11111111       0.44444444 </v>
   <v>       0.22222222      -0.44444444       0.11111111 </v>
   <v>       0.44444444      -0.11111111       0.22222222 </v>
   <v>       0.11111111      -0.22222222       0.44444444 </v>
   <v>       0.11111111      -0.44444444      -0.22222222 </v>
   <v>       0.22222222      -0.11111111      -0.44444444 </v>
   <v>       0.44444444      -0.22222222      -0.11111111 </v>
   <v>       0.11111111       0.22222222      -0.44444444 </v>
   <v>       0.22222222       0.44444444      -0.11111111 </v>
   <v>       0.44444444       0.11111111      -0.22222222 </v>
   <v>      -0.22222222       0.11111111      -0.44444444 </v>
   <v>      -0.44444444       0.22222222      -0.11111111 </v>
   <v>      -0.11111111       0.44444444      -0.22222222 </v>
   <v>      -0.44444444      -0.11111111      -0.22222222 </v>
   <v>      -0.22222222      -0.44444444      -0.11111111 </v>
   <v>      -0.11111111      -0.22222222      -0.44444444 </v>
   <v>       0.33333333       0.33333333       0.11111111 </v>
   <v>       0.11111111       0.33333333       0.33333333 </v>
   <v>       0.33333333       0.11111111       0.33333333 </v>
   <v>      -0.33333333       0.33333333       0.11111111 </v>
   <v>      -0.33333333       0.11111111       0.33333333 </v>
   <v>      -0.11111111       0.33333333       0.33333333 </v>
   <v>      -0.33333333      -0.33333333       0.11111111 </v>
   <v>      -0.11111111      -0.33333333       0.33333333 </v>
   <v>      -0.33333333      -0.11111111       0.33333333 </v>
   <v>       0.33333333      -0.33333333       0.11111111 </v>
   <v>       0.33333333      -0.11111111       0.33333333 </v>
   <v>       0.11111111      -0.33333333       0.33333333 </v>
   <v>       0.44444444       0.33333333       0.11111111 </v>
   <v>       0.11111111       0.44444444       0.33333333 </v>
   <v>       0.33333333       0.11111111       0.44444444 </v>
   <v>      -0.33333333       0.44444444       0.11111111 </v>
   <v>      -0.44444444       0.11111111       0.33333333 </v>
   <v>      -0.11111111       0.33333333       0.44444444 </v>
   <v>      -0.44444444      -0.33333333       0.11111111 </v>
   <v>      -0.11111111      -0.44444444       0.33333333 </v>
   <v>      -0.33333333      -0.11111111       0.44444444 </v>
   <v>       0.33333333      -0.44444444       0.11111111 </v>
   <v>       0.44444444      -0.11111111       0.33333333 </v>
   <v>       0.11111111      -0.33333333       0.44444444 </v>
   <v>       0.11111111      -0.44444444      -0.33333333 </v>
   <v>       0.33333333      -0.11111111      -0.44444444 </v>
   <v>       0.44444444      -0.33333333      -0.11111111 </v>
   <v>       0.11111111       0.33333333      -0.44444444 </v>
   <v>       0.33333333       0.44444444      -0.11111111 </v>
   <v>       0.44444444       0.11111111      -0.33333333 </v>
   <v>      -0.33333333       0.11111111      -0.44444444 </v>
   <v>      -0.44444444       0.33333333      -0.11111111 </v>
   <v>      -0.11111111       0.44444444      -0.33333333 </v>
   <v>      -0.44444444      -0.11111111      -0.33333333 </v>
   <v>      -0.33333333      -0.44444444      -0.11111111 </v>
   <v>      -0.11111111      -0.33333333      -0.44444444 </v>
   <v>       0.44444444       0.44444444       0.11111111 </v>
   <v>       0.11111111       0.44444444       0.44444444 </v>
   <v>       0.44444444       0.11111111       0.44444444 </v>
   <v>      -0.44444444       0.44444444       0.11111111 </v>
   <v>      -0.44444444       0.11111111       0.44444444 </v>
   <v>      -0.11111111       0.44444444       0.44444444 </v>
   <v>      -0.44444444      -0.44444444       0.11111111 </v>
   <v>      -0.11111111      -0.44444444       0.44444444 </v>
   <v>      -0.44444444      -0.11111111       0.44444444 </v>
   <v>       0.44444444      -0.44444444       0.11111111 </v>
   <v>       0.44444444      -0.11111111       0.44444444 </v>
   <v>       0.11111111      -0.44444444       0.44444444 </v>
   <v>       0.22222222       0.22222222       0.22222222 </v>
   <v>      -0.22222222       0.22222222       0.22222222 </v>
   <v>      -0.22222222      -0.22222222       0.22222222 </v>
   <v>       0.22222222      -0.22222222       0.22222222 </v>
   <v>       0.33333333       0.22222222       0.22222222 </v>
   <v>       0.22222222       0.33333333       0.22222222 </v>
   <v>       0.22222222       0.22222222       0.33333333 </v>
   <v>      -0.22222222       0.33333333       0.22222222 </v>
   <v>      -0.33333333       0.22222222       0.22222222 </v>
   <v>      -0.22222222       0.22222222       0.33333333 </v>
   <v>      -0.33333333      -0.22222222       0.22222222 </v>
   <v>      -0.22222222      -0.33333333       0.22222222 </v>
   <v>      -0.22222222      -0.22222222       0.33333333 </v>
   <v>       0.22222222      -0.33333333       0.22222222 </v>
   <v>       0.33333333      -0.22222222       0.22222222 </v>
   <v>       0.22222222      -0.22222222       0.33333333 </v>
   <v>       0.44444444       0.22222222       0.22222222 </v>
   <v>       0.22222222       0.44444444       0.22222222 </v>
   <v>       0.22222222       0.22222222       0.44444444 </v>
   <v>      -0.22222222       0.44444444       0.22222222 </v>
   <v>      -0.44444444       0.22222222       0.22222222 </v>
   <v>      -0.22222222       0.22222222       0.44444444 </v>
   <v>      -0.44444444      -0.22222222       0.22222222 </v>
   <v>      -0.22222222      -0.44444444       0.22222222 </v>
   <v>      -0.22222222      -0.22222222       0.44444444 </v>
   <v>       0.22222222      -0.44444444       0.22222222 </v>
   <v>       0.44444444      -0.22222222       0.22222222 </v>
   <v>       0.22222222      -0.22222222       0.44444444 </v>
   <v>       0.33333333       0.33333333       0.22222222 </v>
   <v>       0.22222222       0.33333333       0.33333333 </v>
   <v>       0.33333333       0.22222222       0.33333333 </v>
   <v>      -0.33333333       0.33333333       0.22222222 </v>
   <v>      -0.33333333       0.22222222       0.33333333 </v>
   <v>      -0.22222222       0.33333333       0.33333333 </v>
   <v>      -0.33333333      -0.33333333       0.22222222 </v>
   <v>      -0.22222222      -0.33333333       0.33333333 </v>
   <v>      -0.33333333      -0.22222222       0.33333333 </v>
   <v>       0.33333333      -0.33333333       0.22222222 </v>
   <v>       0.33333333      -0.22222222       0.33333333 </v>
   <v>       0.22222222      -0.33333333       0.33333333 </v>
   <v>       0.44444444       0.33333333       0.22222222 </v>
   <v>       0.22222222       0.44444444       0.33333333 </v>
   <v>       0.33333333       0.22222222       0.44444444 </v>
   <v>      -0.33333333       0.44444444       0.22222222 </v>
   <v>      -0.44444444       0.22222222       0.33333333 </v>
   <v>      -0.22222222       0.33333333       0.44444444 </v>
   <v>      -0.44444444      -0.33333333       0.22222222 </v>
   <v>      -0.22222222      -0.44444444       0.33333333 </v>
   <v>      -0.33333333      -0.22222222       0.44444444 </v>
   <v>       0.33333333      -0.44444444       0.22222222 </v>
   <v>       0.44444444      -0.22222222       0.33333333 </v>
   <v>       0.22222222      -0.33333333       0.44444444 </v>
   <v>       0.22222222      -0.44444444      -0.33333333 </v>
   <v>       0.33333333      -0.22222222      -0.44444444 </v>
   <v>       0.44444444      -0.33333333      -0.22222222 </v>
   <v>       0.22222222       0.33333333      -0.44444444 </v>
   <v>       0.33333333       0.44444444      -0.22222222 </v>
   <v>       0.44444444       0.22222222      -0.33333333 </v>
   <v>      -0.33333333       0.22222222      -0.44444444 </v>
   <v>      -0.44444444       0.33333333      -0.22222222 </v>
   <v>      -0.22222222       0.44444444      -0.33333333 </v>
   <v>      -0.44444444      -0.22222222      -0.33333333 </v>
   <v>      -0.33333333      -0.44444444      -0.22222222 </v>
   <v>      -0.22222222      -0.33333333      -0.44444444 </v>
   <v>       0.44444444       0.44444444       0.22222222 </v>
   <v>       0.22222222       0.44444444       0.44444444 </v>
   <v>       0.44444444       0.22222222       0.44444444 </v>
   <v>      -0.44444444       0.44444444       0.22222222 </v>
   <v>      -0.44444444       0.22222222       0.44444444 </v>
   <v>      -0.22222222       0.44444444       0.44444444 </v>
   <v>      -0.44444444      -0.44444444       0.22222222 </v>
   <v>      -0.22222222      -0.44444444       0.44444444 </v>
   <v>      -0.44444444      -0.22222222       0.44444444 </v>
   <v>       0.44444444      -0.44444444       0.22222222 </v>
   <v>       0.44444444      -0.22222222       0.44444444 </v>
   <v>       0.22222222      -0.44444444       0.44444444 </v>
   <v>       0.33333333       0.33333333       0.33333333 </v>
   <v>      -0.33333333       0.33333333       0.33333333 </v>
   <v>      -0.33333333      -0.33333333       0.33333333 </v>
   <v>       0.33333333      -0.33333333       0.33333333 </v>
   <v>       0.44444444       0.33333333       0.33333333 </v>
   <v>       0.33333333       0.44444444       0.33333333 </v>
   <v>       0.33333333       0.33333333       0.44444444 </v>
   <v>      -0.33333333       0.44444444       0.33333333 </v>
   <v>      -0.44444444       0.33333333       0.33333333 </v>
   <v>      -0.33333333       0.33333333       0.44444444 </v>
   <v>      -0.44444444      -0.33333333       0.33333333 </v>
   <v>      -0.33333333      -0.44444444       0.33333333 </v>
   <v>      -0.33333333      -0.33333333       0.44444444 </v>
   <v>       0.33333333      -0.44444444       0.33333333 </v>
   <v>       0.44444444      -0.33333333       0.33333333 </v>
   <v>       0.33333333      -0.33333333       0.44444444 </v>
   <v>       0.44444444       0.44444444       0.33333333 </v>
   <v>       0.33333333       0.44444444       0.44444444 </v>
   <v>       0.44444444       0.33333333       0.44444444 </v>
   <v>      -0.44444444       0.44444444       0.33333333 </v>
   <v>      -0.44444444       0.33333333       0.44444444 </v>
   <v>      -0.33333333       0.44444444       0.44444444 </v>
   <v>      -0.44444444      -0.44444444       0.33333333 </v>
   <v>      -0.33333333      -0.44444444       0.44444444 </v>
   <v>      -0.44444444      -0.33333333       0.44444444 </v>
   <v>       0.44444444      -0.44444444       0.33333333 </v>
   <v>       0.44444444      -0.33333333       0.44444444 </v>
   <v>       0.33333333      -0.44444444       0.44444444 </v>
   <v>       0.44444444       0.44444444       0.44444444 </v>
   <v>      -0.44444444       0.44444444       0.44444444 </v>
   <v>      -0.44444444      -0.44444444       0.44444444 </v>
   <v>       0.44444444      -0.44444444       0.44444444 </v>
  </varray>
  <varray name="weights" >
   <v>       0.00137174 </v>
   <v>       0.00274348 </v>
   <v>       0.00274348 </v>
   <v>       0.00274348 </v>
   <v>       0.00274348 </v>
   <v>       0.00274348 </v>
   <v>       0.00274348 </v>
   <v>       0.00274348 </v>
   <v>       0.00274348 </v>
   <v>       0.00274348 </v>
   <v>       0.00274348 </v>
   <v>       0.00274348 </v>
   <v>       0.00274348 </v>
   <v>       0.00274348 </v>
   <v>       0.00274348 </v>
   <v>       0.00274348 </v>
   <v>       0.00274348 </v>
   <v>       0.00274348 </v>
   <v>       0.00274348 </v>
   <v>       0.00274348 </v>
   <v>       0.00274348 </v>
   <v>       0.00274348 </v>
   <v>       0.00274348 </v>
   <v>       0.00274348 </v>
   <v>       0.00274348 </v>
   <v>       0.00274348 </v>
   <v>       0.00274348 </v>
   <v>       0.00274348 </v>
   <v>       0.00274348 </v>
   <v>       0.00274348 </v>
   <v>       0.00274348 </v>
   <v>       0.00274348 </v>
   <v>       0.00274348 </v>
   <v>       0.00274348 </v>
   <v>       0.00274348 </v>
   <v>       0.00274348 </v>
   <v>       0.00274348 </v>
   <v>       0.00274348 </v>
   <v>       0.00274348 </v>
   <v>       0.00274348 </v>
   <v>       0.00274348 </v>
   <v>       0.00274348 </v>
   <v>       0.00274348 </v>
   <v>       0.00274348 </v>
   <v>       0.00274348 </v>
   <v>       0.00274348 </v>
   <v>       0.00274348 </v>
   <v>       0.00274348 </v>
   <v>       0.00274348 </v>
   <v>       0.00274348 </v>
   <v>       0.00274348 </v>
   <v>       0.00274348 </v>
   <v>       0.00274348 </v>
   <v>       0.00274348 </v>
   <v>       0.00274348 </v>
   <v>       0.00274348 </v>
   <v>       0.00274348 </v>
   <v>       0.00274348 </v>
   <v>       0.00274348 </v>
   <v>       0.00274348 </v>
   <v>       0.00274348 </v>
   <v>       0.00274348 </v>
   <v>       0.00274348 </v>
   <v>       0.00274348 </v>
   <v>       0.00274348 </v>
   <v>       0.00274348 </v>
   <v>       0.00274348 </v>
   <v>       0.00274348 </v>
   <v>       0.00274348 </v>
   <v>       0.00274348 </v>
   <v>       0.00274348 </v>
   <v>       0.00274348 </v>
   <v>       0.00274348 </v>
   <v>       0.00274348 </v>
   <v>       0.00274348 </v>
   <v>       0.00274348 </v>
   <v>       0.00274348 </v>
   <v>       0.00274348 </v>
   <v>       0.00274348 </v>
   <v>       0.00274348 </v>
   <v>       0.00274348 </v>
   <v>       0.00274348 </v>
   <v>       0.00274348 </v>
   <v>       0.00274348 </v>
   <v>       0.00274348 </v>
   <v>       0.00274348 </v>
   <v>       0.00274348 </v>
   <v>       0.00274348 </v>
   <v>       0.00274348 </v>
   <v>       0.00274348 </v>
   <v>       0.00274348 </v>
   <v>       0.00274348 </v>
   <v>       0.00274348 </v>
   <v>       0.00274348 </v>
   <v>       0.00274348 </v>
   <v>       0.00274348 </v>
   <v>       0.00274348 </v>
   <v>       0.00274348 </v>
   <v>       0.00274348 </v>
   <v>       0.00274348 </v>
   <v>       0.00274348 </v>
   <v>       0.00274348 </v>
   <v>       0.00274348 </v>
   <v>       0.00274348 </v>
   <v>       0.00274348 </v>
   <v>       0.00274348 </v>
   <v>       0.00274348 </v>
   <v>       0.00274348 </v>
   <v>       0.00274348 </v>
   <v>       0.00274348 </v>
   <v>       0.00274348 </v>
   <v>       0.00274348 </v>
   <v>       0.00274348 </v>
   <v>       0.00274348 </v>
   <v>       0.00274348 </v>
   <v>       0.00274348 </v>
   <v>       0.00274348 </v>
   <v>       0.00274348 </v>
   <v>       0.00274348 </v>
   <v>       0.00274348 </v>
   <v>       0.00274348 </v>
   <v>       0.00274348 </v>
   <v>       0.00274348 </v>
   <v>       0.00274348 </v>
   <v>       0.00274348 </v>
   <v>       0.00274348 </v>
   <v>       0.00274348 </v>
   <v>       0.00274348 </v>
   <v>       0.00274348 </v>
   <v>       0.00274348 </v>
   <v>       0.00274348 </v>
   <v>       0.00274348 </v>
   <v>       0.00274348 </v>
   <v>       0.00274348 </v>
   <v>       0.00274348 </v>
   <v>       0.00274348 </v>
   <v>       0.00274348 </v>
   <v>       0.00274348 </v>
   <v>       0.00274348 </v>
   <v>       0.00274348 </v>
   <v>       0.00274348 </v>
   <v>       0.00274348 </v>
   <v>       0.00274348 </v>
   <v>       0.00274348 </v>
   <v>       0.00274348 </v>
   <v>       0.00274348 </v>
   <v>       0.00274348 </v>
   <v>       0.00274348 </v>
   <v>       0.00274348 </v>
   <v>       0.00274348 </v>
   <v>       0.00274348 </v>
   <v>       0.00274348 </v>
   <v>       0.00274348 </v>
   <v>       0.00274348 </v>
   <v>       0.00274348 </v>
   <v>       0.00274348 </v>
   <v>       0.00274348 </v>
   <v>       0.00274348 </v>
   <v>       0.00274348 </v>
   <v>       0.00274348 </v>
   <v>       0.00274348 </v>
   <v>       0.00274348 </v>
   <v>       0.00274348 </v>
   <v>       0.00274348 </v>
   <v>       0.00274348 </v>
   <v>       0.00274348 </v>
   <v>       0.00274348 </v>
   <v>       0.00274348 </v>
   <v>       0.00274348 </v>
   <v>       0.00274348 </v>
   <v>       0.00274348 </v>
   <v>       0.00274348 </v>
   <v>       0.00274348 </v>
   <v>       0.00274348 </v>
   <v>       0.00274348 </v>
   <v>       0.00274348 </v>
   <v>       0.00274348 </v>
   <v>       0.00274348 </v>
   <v>       0.00274348 </v>
   <v>       0.00274348 </v>
   <v>       0.00274348 </v>
   <v>       0.00274348 </v>
   <v>       0.00274348 </v>
   <v>       0.00274348 </v>
   <v>       0.00274348 </v>
   <v>       0.00274348 </v>
   <v>       0.00274348 </v>
   <v>       0.00274348 </v>
   <v>       0.00274348 </v>
   <v>       0.00274348 </v>
   <v>       0.00274348 </v>
   <v>       0.00274348 </v>
   <v>       0.00274348 </v>
   <v>       0.00274348 </v>
   <v>       0.00274348 </v>
   <v>       0.00274348 </v>
   <v>       0.00274348 </v>
   <v>       0.00274348 </v>
   <v>       0.00274348 </v>
   <v>       0.00274348 </v>
   <v>       0.00274348 </v>
   <v>       0.00274348 </v>
   <v>       0.00274348 </v>
   <v>       0.00274348 </v>
   <v>       0.00274348 </v>
   <v>       0.00274348 </v>
   <v>       0.00274348 </v>
   <v>       0.00274348 </v>
   <v>       0.00274348 </v>
   <v>       0.00274348 </v>
   <v>       0.00274348 </v>
   <v>       0.00274348 </v>
   <v>       0.00274348 </v>
   <v>       0.00274348 </v>
   <v>       0.00274348 </v>
   <v>       0.00274348 </v>
   <v>       0.00274348 </v>
   <v>       0.00274348 </v>
   <v>       0.00274348 </v>
   <v>       0.00274348 </v>
   <v>       0.00274348 </v>
   <v>       0.00274348 </v>
   <v>       0.00274348 </v>
   <v>       0.00274348 </v>
   <v>       0.00274348 </v>
   <v>       0.00274348 </v>
   <v>       0.00274348 </v>
   <v>       0.00274348 </v>
   <v>       0.00274348 </v>
   <v>       0.00274348 </v>
   <v>       0.00274348 </v>
   <v>       0.00274348 </v>
   <v>       0.00274348 </v>
   <v>       0.00274348 </v>
   <v>       0.00274348 </v>
   <v>       0.00274348 </v>
   <v>       0.00274348 </v>
   <v>       0.00274348 </v>
   <v>       0.00274348 </v>
   <v>       0.00274348 </v>
   <v>       0.00274348 </v>
   <v>       0.00274348 </v>
   <v>       0.00274348 </v>
   <v>       0.00274348 </v>
   <v>       0.00274348 </v>
   <v>       0.00274348 </v>
   <v>       0.00274348 </v>
   <v>       0.00274348 </v>
   <v>       0.00274348 </v>
   <v>       0.00274348 </v>
   <v>       0.00274348 </v>
   <v>       0.00274348 </v>
   <v>       0.00274348 </v>
   <v>       0.00274348 </v>
   <v>       0.00274348 </v>
   <v>       0.00274348 </v>
   <v>       0.00274348 </v>
   <v>       0.00274348 </v>
   <v>       0.00274348 </v>
   <v>       0.00274348 </v>
   <v>       0.00274348 </v>
   <v>       0.00274348 </v>
   <v>       0.00274348 </v>
   <v>       0.00274348 </v>
   <v>       0.00274348 </v>
   <v>       0.00274348 </v>
   <v>       0.00274348 </v>
   <v>       0.00274348 </v>
   <v>       0.00274348 </v>
   <v>       0.00274348 </v>
   <v>       0.00274348 </v>
   <v>       0.00274348 </v>
   <v>       0.00274348 </v>
   <v>       0.00274348 </v>
   <v>       0.00274348 </v>
   <v>       0.00274348 </v>
   <v>       0.00274348 </v>
   <v>       0.00274348 </v>
   <v>       0.00274348 </v>
   <v>       0.00274348 </v>
   <v>       0.00274348 </v>
   <v>       0.00274348 </v>
   <v>       0.00274348 </v>
   <v>       0.00274348 </v>
   <v>       0.00274348 </v>
   <v>       0.00274348 </v>
   <v>       0.00274348 </v>
   <v>       0.00274348 </v>
   <v>       0.00274348 </v>
   <v>       0.00274348 </v>
   <v>       0.00274348 </v>
   <v>       0.00274348 </v>
   <v>       0.00274348 </v>
   <v>       0.00274348 </v>
   <v>       0.00274348 </v>
   <v>       0.00274348 </v>
   <v>       0.00274348 </v>
   <v>       0.00274348 </v>
   <v>       0.00274348 </v>
   <v>       0.00274348 </v>
   <v>       0.00274348 </v>
   <v>       0.00274348 </v>
   <v>       0.00274348 </v>
   <v>       0.00274348 </v>
   <v>       0.00274348 </v>
   <v>       0.00274348 </v>
   <v>       0.00274348 </v>
   <v>       0.00274348 </v>
   <v>       0.00274348 </v>
   <v>       0.00274348 </v>
   <v>       0.00274348 </v>
   <v>       0.00274348 </v>
   <v>       0.00274348 </v>
   <v>       0.00274348 </v>
   <v>       0.00274348 </v>
   <v>       0.00274348 </v>
   <v>       0.00274348 </v>
   <v>       0.00274348 </v>
   <v>       0.00274348 </v>
   <v>       0.00274348 </v>
   <v>       0.00274348 </v>
   <v>       0.00274348 </v>
   <v>       0.00274348 </v>
   <v>       0.00274348 </v>
   <v>       0.00274348 </v>
   <v>       0.00274348 </v>
   <v>       0.00274348 </v>
   <v>       0.00274348 </v>
   <v>       0.00274348 </v>
   <v>       0.00274348 </v>
   <v>       0.00274348 </v>
   <v>       0.00274348 </v>
   <v>       0.00274348 </v>
   <v>       0.00274348 </v>
   <v>       0.00274348 </v>
   <v>       0.00274348 </v>
   <v>       0.00274348 </v>
   <v>       0.00274348 </v>
   <v>       0.00274348 </v>
   <v>       0.00274348 </v>
   <v>       0.00274348 </v>
   <v>       0.00274348 </v>
   <v>       0.00274348 </v>
   <v>       0.00274348 </v>
   <v>       0.00274348 </v>
   <v>       0.00274348 </v>
   <v>       0.00274348 </v>
   <v>       0.00274348 </v>
   <v>       0.00274348 </v>
   <v>       0.00274348 </v>
   <v>       0.00274348 </v>
   <v>       0.00274348 </v>
   <v>       0.00274348 </v>
   <v>       0.00274348 </v>
   <v>       0.00274348 </v>
   <v>       0.00274348 </v>
   <v>       0.00274348 </v>
   <v>       0.00274348 </v>
   <v>       0.00274348 </v>
   <v>       0.00274348 </v>
   <v>       0.00274348 </v>
   <v>       0.00274348 </v>
   <v>       0.00274348 </v>
   <v>       0.00274348 </v>
   <v>       0.00274348 </v>
  </varray>
 </kpoints>
 <parameters>
  <separator name="general" >
   <i type="string" name="SYSTEM">al</i>
   <i type="logical" name="LCOMPAT"> F  </i>
  </separator>
  <separator name="electronic" >
   <i type="string" name="PREC">accura</i>
   <i name="ENMAX">    600.00000000</i>
   <i name="ENAUG">    291.05200000</i>
   <i name="EDIFF">      0.00000100</i>
   <i type="int" name="IALGO">    38</i>
   <i type="int" name="IWAVPR">    10</i>
   <i type="int" name="NBANDS">    72</i>
   <i type="int" name="NBANDSLOW">    -1</i>
   <i type="int" name="NBANDSHIGH">    -1</i>
   <i name="NELECT">     96.00000000</i>
   <i type="int" name="TURBO">     0</i>
   <i type="int" name="IRESTART">     0</i>
   <i type="int" name="NREBOOT">     0</i>
   <i type="int" name="NMIN">     0</i>
   <i name="EREF">      0.00000000</i>
   <separator name="electronic smearing" >
    <i type="int" name="ISMEAR">     0</i>
    <i name="SIGMA">      0.05000000</i>
    <i name="KSPACING">      0.50000000</i>
    <i type="logical" name="KGAMMA"> T  </i>
    <i type="logical" name="KBLOWUP"> T  </i>
   </separator>
   <separator name="electronic projectors" >
    <i type="logical" name="LREAL"> T  </i>
    <v name="ROPT">     -0.00025000</v>
    <i type="int" name="LMAXPAW">    -1</i>
    <i type="int" name="LMAXMIX">     2</i>
    <i type="logical" name="NLSPLINE"> F  </i>
   </separator>
   <separator name="electronic startup" >
    <i type="int" name="ISTART">     0</i>
    <i type="int" name="ICHARG">     2</i>
    <i type="int" name="INIWAV">     1</i>
   </separator>
   <separator name="electronic spin" >
    <i type="int" name="ISPIN">     1</i>
    <i type="logical" name="LNONCOLLINEAR"> F  </i>
    <v name="MAGMOM">      1.00000000      1.00000000      1.00000000      1.00000000      1.00000000      1.00000000      1.00000000      1.00000000      1.00000000      1.00000000      1.00000000      1.00000000      1.00000000      1.00000000      1.00000000      1.00000000      1.00000000      1.00000000      1.00000000      1.00000000
      1.00000000      1.00000000      1.00000000      1.00000000      1.00000000      1.00000000      1.00000000      1.00000000      1.00000000      1.00000000      1.00000000      1.00000000</v>
    <i name="NUPDOWN">     -1.00000000</i>
    <i type="logical" name="LSORBIT"> F  </i>
    <v name="SAXIS">      0.00000000      0.00000000      1.00000000</v>
    <i type="logical" name="LSPIRAL"> F  </i>
    <v name="QSPIRAL">      0.00000000      0.00000000      0.00000000</v>
    <i type="logical" name="LZEROZ"> F  </i>
   </separator>
   <separator name="electronic exchange-correlation" >
    <i type="logical" name="LASPH"> F  </i>
    <i type="logical" name="LMETAGGA"> F  </i>
   </separator>
   <separator name="electronic convergence" >
    <i type="int" name="NELM">   200</i>
    <i type="int" name="NELMDL">    -5</i>
    <i type="int" name="NELMIN">     2</i>
    <i name="ENINI">    600.00000000</i>
    <separator name="electronic convergence detail" >
     <i type="logical" name="LDIAG"> T  </i>
     <i type="logical" name="LSUBROT"> F  </i>
     <i name="WEIMIN">      0.00000000</i>
     <i name="EBREAK">      0.00000000</i>
     <i name="DEPER">      0.30000000</i>
     <i type="int" name="NRMM">     4</i>
     <i name="TIME">      0.40000000</i>
    </separator>
   </separator>
   <separator name="electronic mixer" >
    <i name="AMIX">      0.40000000</i>
    <i name="BMIX">      1.00000000</i>
    <i name="AMIN">      0.10000000</i>
    <i name="AMIX_MAG">      1.60000000</i>
    <i name="BMIX_MAG">      1.00000000</i>
    <separator name="electronic mixer details" >
     <i type="int" name="IMIX">     4</i>
     <i type="logical" name="MIXFIRST"> F  </i>
     <i type="int" name="MAXMIX">   -45</i>
     <i name="WC">    100.00000000</i>
     <i type="int" name="INIMIX">     1</i>
     <i type="int" name="MIXPRE">     1</i>
     <i type="int" name="MREMOVE">     5</i>
    </separator>
   </separator>
   <separator name="electronic dipolcorrection" >
    <i type="logical" name="LDIPOL"> F  </i>
    <i type="logical" name="LMONO"> F  </i>
    <i type="int" name="IDIPOL">     0</i>
    <i name="EPSILON">      1.00000000</i>
    <v name="DIPOL">   -100.00000000   -100.00000000   -100.00000000</v>
    <i name="EFIELD">      0.00000000</i>
   </separator>
  </separator>
  <separator name="grids" >
   <i type="int" name="NGX">    70</i>
   <i type="int" name="NGY">    70</i>
   <i type="int" name="NGZ">    70</i>
   <i type="int" name="NGXF">   140</i>
   <i type="int" name="NGYF">   140</i>
   <i type="int" name="NGZF">   140</i>
   <i type="logical" name="ADDGRID"> F  </i>
  </separator>
  <separator name="ionic" >
   <i type="int" name="NSW">     0</i>
   <i type="int" name="IBRION">    -1</i>
   <i type="int" name="MDALGO">     0</i>
   <i type="int" name="ISIF">     2</i>
   <i name="PSTRESS">      0.00000000</i>
   <i name="EDIFFG">      0.00001000</i>
   <i type="int" name="NFREE">     0</i>
   <i name="POTIM">      0.50000000</i>
   <i name="SMASS">     -3.00000000</i>
   <i name="SCALEE">      1.00000000</i>
  </separator>
  <separator name="ionic md" >
   <i name="TEBEG">      0.00010000</i>
   <i name="TEEND">      0.00010000</i>
   <i type="int" name="NBLOCK">     1</i>
   <i type="int" name="KBLOCK">     1</i>
   <i type="int" name="NPACO">   256</i>
   <i name="APACO">     16.00000000</i>
  </separator>
  <separator name="symmetry" >
   <i type="int" name="ISYM">     2</i>
   <i name="SYMPREC">      0.00001000</i>
  </separator>
  <separator name="dos" >
   <i type="int" name="LORBIT">     0</i>
   <v name="RWIGS">     -1.00000000</v>
   <i type="int" name="NEDOS">   301</i>
   <i name="EMIN">     10.00000000</i>
   <i name="EMAX">    -10.00000000</i>
   <i name="EFERMI">      0.00000000</i>
  </separator>
  <separator name="writing" >
   <i type="int" name="NWRITE">     2</i>
   <i type="logical" name="LWAVE"> F  </i>
   <i type="logical" name="LDOWNSAMPLE"> F  </i>
   <i type="logical" name="LCHARG"> T  </i>
   <i type="logical" name="LPARD"> F  </i>
   <i type="logical" name="LVTOT"> F  </i>
   <i type="logical" name="LVHAR"> F  </i>
   <i type="logical" name="LELF"> F  </i>
   <i type="logical" name="LOPTICS"> F  </i>
   <v name="STM">      0.00000000      0.00000000      0.00000000      0.00000000      0.00000000      0.00000000      0.00000000</v>
  </separator>
  <separator name="performance" >
   <i type="int" name="NPAR">     8</i>
   <i type="int" name="NSIM">     8</i>
   <i type="int" name="NBLK">    -1</i>
   <i type="logical" name="LPLANE"> T  </i>
   <i type="logical" name="LSCALAPACK"> T  </i>
   <i type="logical" name="LSCAAWARE"> F  </i>
   <i type="logical" name="LSCALU"> F  </i>
   <i type="logical" name="LASYNC"> F  </i>
   <i type="logical" name="LORBITALREAL"> F  </i>
  </separator>
  <separator name="miscellaneous" >
   <i type="int" name="IDIOT">     3</i>
   <i type="int" name="PHON_NSTRUCT">    -1</i>
   <i type="logical" name="LMUSIC"> F  </i>
   <v name="POMASS">     26.98100000</v>
   <v name="DARWINR">      0.00000000</v>
   <v name="DARWINV">      1.00000000</v>
   <i type="logical" name="LCORR"> T  </i>
  </separator>
  <i type="logical" name="GGA_COMPAT"> T  </i>
  <i type="logical" name="LBERRY"> F  </i>
  <i type="int" name="ICORELEVEL">     0</i>
  <i type="logical" name="LDAU"> F  </i>
  <i type="int" name="I_CONSTRAINED_M">     0</i>
  <separator name="electronic exchange-correlation" >
   <i type="string" name="GGA">PE</i>
   <i type="int" name="VOSKOWN">     0</i>
   <i type="logical" name="LHFCALC"> F  </i>
   <i type="string" name="PRECFOCK"></i>
   <i type="logical" name="LSYMGRAD"> F  </i>
   <i type="logical" name="LHFONE"> F  </i>
   <i type="logical" name="LRHFCALC"> F  </i>
   <i type="logical" name="LTHOMAS"> F  </i>
   <i type="logical" name="LMODELHF"> F  </i>
   <i type="logical" name="LFOCKACE"> F  </i>
   <i name="ENCUT4O">     -1.00000000</i>
   <i type="int" name="EXXOEP">     0</i>
   <i type="int" name="FOURORBIT">     0</i>
   <i name="AEXX">      0.00000000</i>
   <i name="HFALPHA">      0.00000000</i>
   <i name="MCALPHA">      0.00000000</i>
   <i name="ALDAX">      1.00000000</i>
   <i name="AGGAX">      1.00000000</i>
   <i name="ALDAC">      1.00000000</i>
   <i name="AGGAC">      1.00000000</i>
   <i type="int" name="NKREDX">     1</i>
   <i type="int" name="NKREDY">     1</i>
   <i type="int" name="NKREDZ">     1</i>
   <i type="logical" name="SHIFTRED"> F  </i>
   <i type="logical" name="ODDONLY"> F  </i>
   <i type="logical" name="EVENONLY"> F  </i>
   <i type="int" name="LMAXFOCK">     0</i>
   <i type="int" name="NMAXFOCKAE">     0</i>
   <i type="logical" name="LFOCKAEDFT"> F  </i>
   <i name="HFSCREEN">      0.00000000</i>
   <i name="HFSCREENC">      0.00000000</i>
   <i type="int" name="NBANDSGWLOW">     0</i>
  </separator>
  <separator name="vdW DFT" >
   <i type="logical" name="LUSE_VDW"> F  </i>
   <i name="Zab_VDW">     -0.84910000</i>
   <i name="PARAM1">      0.12340000</i>
   <i name="PARAM2">      1.00000000</i>
   <i name="PARAM3">      0.00000000</i>
  </separator>
  <separator name="model GW" >
   <i type="int" name="MODEL_GW">     0</i>
   <i name="MODEL_EPS0">      9.88389577</i>
   <i name="MODEL_ALPHA">      1.00000000</i>
  </separator>
  <separator name="linear response parameters" >
   <i type="logical" name="LEPSILON"> F  </i>
   <i type="logical" name="LRPA"> F  </i>
   <i type="logical" name="LNABLA"> F  </i>
   <i type="logical" name="LVEL"> F  </i>
   <i type="int" name="KINTER">     0</i>
   <i name="CSHIFT">      0.10000000</i>
   <i name="OMEGAMAX">     -1.00000000</i>
   <i name="DEG_THRESHOLD">      0.00200000</i>
   <i name="RTIME">     -0.10000000</i>
   <i name="WPLASMAI">      0.00000000</i>
   <v name="DFIELD">      0.00000000      0.00000000      0.00000000</v>
   <v name="WPLASMA">      0.00000000      0.00000000      0.00000000      0.00000000      0.00000000      0.00000000      0.00000000      0.00000000      0.00000000</v>
  </separator>
  <separator name="orbital magnetization" >
   <i type="logical" name="NUCIND"> F  </i>
   <v name="MAGPOS">      0.00000000      0.00000000      0.00000000</v>
   <i type="logical" name="LNICSALL"> T  </i>
   <i type="logical" name="ORBITALMAG"> F  </i>
   <i type="logical" name="LMAGBLOCH"> F  </i>
   <i type="logical" name="LCHIMAG"> F  </i>
   <i type="logical" name="LGAUGE"> T  </i>
   <i type="int" name="MAGATOM">     0</i>
   <v name="MAGDIPOL">      0.00000000      0.00000000      0.00000000</v>
   <v name="AVECCONST">      0.00000000      0.00000000      0.00000000</v>
  </separator>
  <separator name="response functions" >
   <i type="logical" name="LFINITE_TEMPERATURE"> F  </i>
   <i type="logical" name="LADDER"> F  </i>
   <i type="logical" name="LRPAFORCE"> F  </i>
   <i type="logical" name="LFXC"> F  </i>
   <i type="logical" name="LHARTREE"> T  </i>
   <i type="int" name="IBSE">     0</i>
   <v type="int" name="KPOINT">    -1     0     0     0</v>
   <i type="logical" name="LTCTC"> F  </i>
   <i type="logical" name="LTCTE"> F  </i>
   <i type="logical" name="LTETE"> F  </i>
   <i type="logical" name="LTRIPLET"> F  </i>
   <i type="logical" name="LFXCEPS"> F  </i>
   <i type="logical" name="LFXHEG"> F  </i>
   <i type="int" name="NATURALO">     2</i>
   <i type="logical" name="LHOLEGF"> F  </i>
   <i type="logical" name="L2ORDER"> F  </i>
   <i type="logical" name="LDMP1"> F  </i>
   <i type="logical" name="LMP2LT"> F  </i>
   <i type="logical" name="LSMP2LT"> F  </i>
   <i type="logical" name="LGWLF"> F  </i>
   <i name="ENCUTGW">     -2.00000000</i>
   <i name="ENCUTGWSOFT">     -2.00000000</i>
   <i name="ENCUTLF">     -1.00000000</i>
   <i type="logical" name="LESF_SPLINES"> F  </i>
   <i type="int" name="LMAXMP2">    -1</i>
   <i name="SCISSOR">      0.00000000</i>
   <i type="int" name="NOMEGA">     0</i>
   <i type="int" name="NOMEGAR">     0</i>
   <i type="int" name="NBANDSGW">    -1</i>
   <i type="int" name="NBANDSO">    -1</i>
   <i type="int" name="NBANDSV">    -1</i>
   <i type="int" name="NELM">   200</i>
   <i type="int" name="NELMHF">     1</i>
   <i type="int" name="DIM">     3</i>
   <i type="int" name="IESPILON">     4</i>
   <i type="int" name="ANTIRES">     0</i>
   <i name="OMEGAMAX">    -30.00000000</i>
   <i name="OMEGAMIN">    -30.00000000</i>
   <i name="OMEGATL">   -200.00000000</i>
   <i type="int" name="OMEGAGRID">     0</i>
   <i name="CSHIFT">     -0.10000000</i>
   <i type="logical" name="LSELFENERGY"> F  </i>
   <i type="logical" name="LSPECTRAL"> F  </i>
   <i type="logical" name="LSPECTRALGW"> F  </i>
   <i type="logical" name="LSINGLES"> F  </i>
   <i type="logical" name="LFERMIGW"> F  </i>
   <i type="logical" name="ODDONLYGW"> F  </i>
   <i type="logical" name="EVENONLYGW"> F  </i>
   <i type="int" name="NKREDLFX">     1</i>
   <i type="int" name="NKREDLFY">     1</i>
   <i type="int" name="NKREDLFZ">     1</i>
   <i type="int" name="MAXMEM">  2800</i>
   <i type="int" name="TELESCOPE">     0</i>
   <i type="int" name="NTAUPAR">    -1</i>
   <i type="int" name="NOMEGAPAR">    -1</i>
   <i name="DAMP_NEWTON">      0.80000001</i>
   <i name="LAMBDA">      1.00000000</i>
  </separator>
  <separator name="External order field" >
   <i name="OFIELD_KAPPA">      0.00000000</i>
   <v name="OFIELD_K">      0.00000000      0.00000000      0.00000000</v>
   <i name="OFIELD_Q6_NEAR">      0.00000000</i>
   <i name="OFIELD_Q6_FAR">      0.00000000</i>
   <i name="OFIELD_A">      0.00000000</i>
  </separator>
 </parameters>
 <atominfo>
  <atoms>      32 </atoms>
  <types>       1 </types>
  <array name="atoms" >
   <dimension dim="1">ion</dimension>
   <field type="string">element</field>
   <field type="int">atomtype</field>
   <set>
    <rc><c>Al</c><c>   1</c></rc>
    <rc><c>Al</c><c>   1</c></rc>
    <rc><c>Al</c><c>   1</c></rc>
    <rc><c>Al</c><c>   1</c></rc>
    <rc><c>Al</c><c>   1</c></rc>
    <rc><c>Al</c><c>   1</c></rc>
    <rc><c>Al</c><c>   1</c></rc>
    <rc><c>Al</c><c>   1</c></rc>
    <rc><c>Al</c><c>   1</c></rc>
    <rc><c>Al</c><c>   1</c></rc>
    <rc><c>Al</c><c>   1</c></rc>
    <rc><c>Al</c><c>   1</c></rc>
    <rc><c>Al</c><c>   1</c></rc>
    <rc><c>Al</c><c>   1</c></rc>
    <rc><c>Al</c><c>   1</c></rc>
    <rc><c>Al</c><c>   1</c></rc>
    <rc><c>Al</c><c>   1</c></rc>
    <rc><c>Al</c><c>   1</c></rc>
    <rc><c>Al</c><c>   1</c></rc>
    <rc><c>Al</c><c>   1</c></rc>
    <rc><c>Al</c><c>   1</c></rc>
    <rc><c>Al</c><c>   1</c></rc>
    <rc><c>Al</c><c>   1</c></rc>
    <rc><c>Al</c><c>   1</c></rc>
    <rc><c>Al</c><c>   1</c></rc>
    <rc><c>Al</c><c>   1</c></rc>
    <rc><c>Al</c><c>   1</c></rc>
    <rc><c>Al</c><c>   1</c></rc>
    <rc><c>Al</c><c>   1</c></rc>
    <rc><c>Al</c><c>   1</c></rc>
    <rc><c>Al</c><c>   1</c></rc>
    <rc><c>Al</c><c>   1</c></rc>
   </set>
  </array>
  <array name="atomtypes" >
   <dimension dim="1">type</dimension>
   <field type="int">atomspertype</field>
   <field type="string">element</field>
   <field>mass</field>
   <field>valence</field>
   <field type="string">pseudopotential</field>
   <set>
    <rc><c>  32</c><c>Al</c><c>     26.98100000</c><c>      3.00000000</c><c>  PAW_PBE Al 04Jan2001                  </c></rc>
   </set>
  </array>
 </atominfo>
 <structure name="initialpos" >
  <crystal>
   <varray name="basis" >
    <v>       8.07809510       0.00000000       0.00000000 </v>
    <v>       0.00000000       8.07809510       0.00000000 </v>
    <v>       0.00000000       0.00000000       8.07809510 </v>
   </varray>
   <i name="volume">    527.14110776 </i>
   <varray name="rec_basis" >
    <v>       0.12379156       0.00000000       0.00000000 </v>
    <v>       0.00000000       0.12379156       0.00000000 </v>
    <v>       0.00000000       0.00000000       0.12379156 </v>
   </varray>
  </crystal>
  <varray name="positions" >
   <v>       0.00811914       0.99060512       0.00949287 </v>
   <v>       0.01166023       0.26620066       0.26255250 </v>
   <v>       0.25002743       0.00572336       0.25679003 </v>
   <v>       0.22775729       0.24974628       0.99534362 </v>
   <v>       0.99326722       0.00513544       0.49063917 </v>
   <v>       0.98250102       0.24079381       0.75223119 </v>
   <v>       0.26192163       0.98932098       0.74118790 </v>
   <v>       0.23534450       0.25991068       0.51618638 </v>
   <v>       0.00024990       0.50808705       0.98447215 </v>
   <v>       0.97341968       0.75249351       0.22753104 </v>
   <v>       0.25949474       0.51535820       0.24347528 </v>
   <v>       0.27378326       0.75728492       0.02412920 </v>
   <v>       0.99493941       0.50059204       0.50530089 </v>
   <v>       0.00703001       0.74592214       0.74713007 </v>
   <v>       0.24629343       0.49182844       0.74151624 </v>
   <v>       0.24518547       0.75345356       0.49855244 </v>
   <v>       0.49691691       0.00700458       0.98619897 </v>
   <v>       0.49901902       0.24354638       0.24945449 </v>
   <v>       0.73472057       0.00038910       0.22865566 </v>
   <v>       0.76489780       0.23469910       0.00349231 </v>
   <v>       0.50730304       0.99544513       0.47540259 </v>
   <v>       0.50123168       0.24315046       0.72987310 </v>
   <v>       0.76289304       0.00021208       0.74313171 </v>
   <v>       0.75629086       0.24952125       0.48317716 </v>
   <v>       0.49629521       0.47450270       0.00722677 </v>
   <v>       0.50989472       0.74438127       0.24842186 </v>
   <v>       0.76379729       0.50466980       0.25400580 </v>
   <v>       0.73821428       0.75647207       0.98606261 </v>
   <v>       0.48815399       0.49091162       0.50160649 </v>
   <v>       0.49856373       0.73815909       0.74625901 </v>
   <v>       0.74044328       0.50211951       0.76302481 </v>
   <v>       0.76098626       0.74973176       0.50687765 </v>
  </varray>
 </structure>
 <calculation>
  <scstep>
   <time name="dav">   46.64   46.96</time>
   <time name="total">   46.70   47.02</time>
   <energy>
    <i name="alphaZ">     -6.52466918 </i>
    <i name="ewald">  -2347.81573918 </i>
    <i name="hartreedc">     -5.19996098 </i>
    <i name="XCdc">   -839.48414447 </i>
    <i name="pawpsdc">   2118.40502803 </i>
    <i name="pawaedc">  -1095.85986421 </i>
    <i name="eentropy">     -0.00791875 </i>
    <i name="bandstr">    600.91434756 </i>
    <i name="atom">   1713.23359074 </i>
    <i name="e_fr_energy">    137.66066956 </i>
    <i name="e_wo_entrp">    137.66858831 </i>
    <i name="e_0_energy">    137.66462893 </i>
   </energy>
  </scstep>
  <scstep>
   <time name="dav">   53.17   53.58</time>
   <time name="total">   53.18   53.59</time>
   <energy>
    <i name="e_fr_energy">   -106.43810009 </i>
    <i name="e_wo_entrp">   -106.42309382 </i>
    <i name="e_0_energy">   -106.43059696 </i>
   </energy>
  </scstep>
  <scstep>
   <time name="dav">   56.42   56.80</time>
   <time name="total">   56.43   56.81</time>
   <energy>
    <i name="e_fr_energy">   -119.29589613 </i>
    <i name="e_wo_entrp">   -119.27863486 </i>
    <i name="e_0_energy">   -119.28726550 </i>
   </energy>
  </scstep>
  <scstep>
   <time name="dav">   54.71   55.07</time>
   <time name="total">   54.72   55.08</time>
   <energy>
    <i name="e_fr_energy">   -119.53398548 </i>
    <i name="e_wo_entrp">   -119.51676654 </i>
    <i name="e_0_energy">   -119.52537601 </i>
   </energy>
  </scstep>
  <scstep>
   <time name="dav">   54.78   55.15</time>
   <time name="total">   57.20   57.59</time>
   <energy>
    <i name="e_fr_energy">   -119.53657239 </i>
    <i name="e_wo_entrp">   -119.51935683 </i>
    <i name="e_0_energy">   -119.52796461 </i>
   </energy>
  </scstep>
  <scstep>
   <time name="dav">   58.36   58.75</time>
   <time name="total">   61.43   61.84</time>
   <energy>
    <i name="e_fr_energy">   -118.95520516 </i>
    <i name="e_wo_entrp">   -118.93854094 </i>
    <i name="e_0_energy">   -118.94687305 </i>
   </energy>
  </scstep>
  <scstep>
   <time name="dav">   57.67   58.05</time>
   <time name="total">   60.73   61.14</time>
   <energy>
    <i name="e_fr_energy">   -118.66251515 </i>
    <i name="e_wo_entrp">   -118.64609417 </i>
    <i name="e_0_energy">   -118.65430466 </i>
   </energy>
  </scstep>
  <scstep>
   <time name="dav">   58.87   59.25</time>
   <time name="total">   61.92   62.33</time>
   <energy>
    <i name="e_fr_energy">   -118.64569774 </i>
    <i name="e_wo_entrp">   -118.62914708 </i>
    <i name="e_0_energy">   -118.63742241 </i>
   </energy>
  </scstep>
  <scstep>
   <time name="dav">   57.68   58.06</time>
   <time name="total">   60.73   61.14</time>
   <energy>
    <i name="e_fr_energy">   -118.64438846 </i>
    <i name="e_wo_entrp">   -118.62779919 </i>
    <i name="e_0_energy">   -118.63609382 </i>
   </energy>
  </scstep>
  <scstep>
   <time name="dav">   59.61   59.99</time>
   <time name="total">   62.67   63.07</time>
   <energy>
    <i name="e_fr_energy">   -118.64428854 </i>
    <i name="e_wo_entrp">   -118.62768638 </i>
    <i name="e_0_energy">   -118.63598746 </i>
   </energy>
  </scstep>
  <scstep>
   <time name="dav">   58.43   58.80</time>
   <time name="total">   61.47   61.87</time>
   <energy>
    <i name="e_fr_energy">   -118.64428862 </i>
    <i name="e_wo_entrp">   -118.62768515 </i>
    <i name="e_0_energy">   -118.63598689 </i>
   </energy>
  </scstep>
  <scstep>
   <time name="dav">   40.12   40.39</time>
   <time name="total">   40.20   40.48</time>
   <energy>
    <i name="alphaZ">     -6.52466918 </i>
    <i name="ewald">  -2347.81573918 </i>
    <i name="hartreedc">     -6.33682259 </i>
    <i name="XCdc">   -835.88827001 </i>
    <i name="pawpsdc">   2118.40502803 </i>
    <i name="pawaedc">  -1095.85986421 </i>
    <i name="eentropy">     -0.01660319 </i>
    <i name="bandstr">    342.15906106 </i>
    <i name="atom">   1713.23359074 </i>
    <i name="e_fr_energy">   -118.64428854 </i>
    <i name="e_wo_entrp">   -118.62768534 </i>
    <i name="e_0_energy">   -118.63598694 </i>
   </energy>
  </scstep>
  <structure>
   <crystal>
    <varray name="basis" >
     <v>       8.07809510       0.00000000       0.00000000 </v>
     <v>       0.00000000       8.07809510       0.00000000 </v>
     <v>       0.00000000       0.00000000       8.07809510 </v>
    </varray>
    <i name="volume">    527.14110776 </i>
    <varray name="rec_basis" >
     <v>       0.12379156       0.00000000       0.00000000 </v>
     <v>       0.00000000       0.12379156       0.00000000 </v>
     <v>       0.00000000       0.00000000       0.12379156 </v>
    </varray>
   </crystal>
   <varray name="positions" >
    <v>       0.00811914       0.99060512       0.00949287 </v>
    <v>       0.01166023       0.26620066       0.26255250 </v>
    <v>       0.25002743       0.00572336       0.25679003 </v>
    <v>       0.22775729       0.24974628       0.99534362 </v>
    <v>       0.99326722       0.00513544       0.49063917 </v>
    <v>       0.98250102       0.24079381       0.75223119 </v>
    <v>       0.26192163       0.98932098       0.74118790 </v>
    <v>       0.23534450       0.25991068       0.51618638 </v>
    <v>       0.00024990       0.50808705       0.98447215 </v>
    <v>       0.97341968       0.75249351       0.22753104 </v>
    <v>       0.25949474       0.51535820       0.24347528 </v>
    <v>       0.27378326       0.75728492       0.02412920 </v>
    <v>       0.99493941       0.50059204       0.50530089 </v>
    <v>       0.00703001       0.74592214       0.74713007 </v>
    <v>       0.24629343       0.49182844       0.74151624 </v>
    <v>       0.24518547       0.75345356       0.49855244 </v>
    <v>       0.49691691       0.00700458       0.98619897 </v>
    <v>       0.49901902       0.24354638       0.24945449 </v>
    <v>       0.73472057       0.00038910       0.22865566 </v>
    <v>       0.76489780       0.23469910       0.00349231 </v>
    <v>       0.50730304       0.99544513       0.47540259 </v>
    <v>       0.50123168       0.24315046       0.72987310 </v>
    <v>       0.76289304       0.00021208       0.74313171 </v>
    <v>       0.75629086       0.24952125       0.48317716 </v>
    <v>       0.49629521       0.47450270       0.00722677 </v>
    <v>       0.50989472       0.74438127       0.24842186 </v>
    <v>       0.76379729       0.50466980       0.25400580 </v>
    <v>       0.73821428       0.75647207       0.98606261 </v>
    <v>       0.48815399       0.49091162       0.50160649 </v>
    <v>       0.49856373       0.73815909       0.74625901 </v>
    <v>       0.74044328       0.50211951       0.76302481 </v>
    <v>       0.76098626       0.74973176       0.50687765 </v>
   </varray>
  </structure>
  <varray name="forces" >
   <v>       0.03765394       0.20520776      -0.51055388 </v>
   <v>      -0.04916139      -0.25459490      -0.55252840 </v>
   <v>      -0.10363688       0.01976961      -0.07911970 </v>
   <v>       0.48718225      -0.03644610       0.00291947 </v>
   <v>       0.23359898      -0.23001756      -0.07891132 </v>
   <v>       0.48534467       0.28809250      -0.16514637 </v>
   <v>      -0.37785465       0.23288686       0.12196875 </v>
   <v>       0.28935523      -0.60506866      -0.53782123 </v>
   <v>       0.03462652      -0.13400039       0.42311646 </v>
   <v>       0.83712288      -0.03353201       0.72516007 </v>
   <v>      -0.53735106      -0.51917534       0.38423669 </v>
   <v>      -0.66560024      -0.11513482      -0.92913546 </v>
   <v>       0.10318273       0.20597110       0.00163711 </v>
   <v>       0.07483622       0.28525250       0.16890398 </v>
   <v>       0.08062830       0.41692410       0.67900109 </v>
   <v>       0.00425484      -0.08606568      -0.26966202 </v>
   <v>       0.00101610       0.10950673      -0.01713618 </v>
   <v>      -0.20976720       0.33985383      -0.05807873 </v>
   <v>       0.55292777      -0.12075726       0.49486601 </v>
   <v>      -0.34768997       0.65024199      -0.03519494 </v>
   <v>      -0.06761536      -0.07997905       0.82431021 </v>
   <v>       0.20272448      -0.12045487       0.44234726 </v>
   <v>      -0.57987108      -0.21657577       0.00759435 </v>
   <v>      -0.43149895       0.04605704       0.33289697 </v>
   <v>       0.22410982       0.28026986      -0.39008569 </v>
   <v>       0.22565689      -0.07689456       0.27342760 </v>
   <v>      -0.64243862      -0.30367535      -0.29296820 </v>
   <v>       0.06519115      -0.22910360       0.04875544 </v>
   <v>       0.51207782       0.31477567      -0.31836799 </v>
   <v>      -0.15002390       0.19272683      -0.07358502 </v>
   <v>       0.09150067      -0.37314829      -0.43401732 </v>
   <v>      -0.38048197      -0.05291219      -0.18882902 </v>
  </varray>
  <varray name="stress" >
   <v>      10.81592077       2.09282830       1.69097714 </v>
   <v>       2.09282828      14.97756444      -2.01153575 </v>
   <v>       1.69097712      -2.01153571      13.99411469 </v>
  </varray>
  <energy>
   <i name="e_fr_energy">   -118.64428854 </i>
   <i name="e_wo_entrp">   -118.62768534 </i>
   <i name="e_0_energy">   -118.63598694 </i>
  </energy>
  <time name="totalsc">  747.64  752.71</time>
  <eigenvalues>
   <array>
    <dimension dim="1">band</dimension>
    <dimension dim="2">kpoint</dimension>
    <dimension dim="3">spin</dimension>
    <field>eigene</field>
    <field>occ</field>
    <set>
     <set comment="spin 1">
      <set comment="kpoint 1">
       <r>   -3.1576    1.0000 </r>
       <r>   -1.1050    1.0000 </r>
       <r>   -0.9934    1.0000 </r>
       <r>   -0.9252    1.0000 </r>
       <r>   -0.8461    1.0000 </r>
       <r>   -0.8260    1.0000 </r>
       <r>   -0.7643    1.0000 </r>
       <r>    0.9795    1.0000 </r>
       <r>    1.1020    1.0000 </r>
       <r>    1.1329    1.0000 </r>
       <r>    1.1672    1.0000 </r>
       <r>    1.2622    1.0000 </r>
       <r>    1.2958    1.0000 </r>
       <r>    1.3355    1.0000 </r>
       <r>    1.3923    1.0000 </r>
       <r>    1.4476    1.0000 </r>
       <r>    1.4825    1.0000 </r>
       <r>    1.5220    1.0000 </r>
       <r>    1.6305    1.0000 </r>
       <r>    3.3165    1.0000 </r>
       <r>    3.3423    1.0000 </r>
       <r>    3.4019    1.0000 </r>
       <r>    3.4102    1.0000 </r>
       <r>    3.6106    1.0000 </r>
       <r>    3.6313    1.0000 </r>
       <r>    3.6574    1.0000 </r>
       <r>    3.6940    1.0000 </r>
       <r>    5.0529    1.0000 </r>
       <r>    5.0792    1.0000 </r>
       <r>    5.0995    1.0000 </r>
       <r>    6.3264    1.0000 </r>
       <r>    6.3489    1.0000 </r>
       <r>    6.3543    1.0000 </r>
       <r>    6.8698    1.0000 </r>
       <r>    6.9223    1.0000 </r>
       <r>    6.9515    1.0000 </r>
       <r>    6.9995    1.0000 </r>
       <r>    7.0883    1.0000 </r>
       <r>    7.1337    1.0000 </r>
       <r>    7.1998    1.0000 </r>
       <r>    7.2442    1.0000 </r>
       <r>    7.3024    1.0000 </r>
       <r>    7.3419    1.0000 </r>
       <r>    7.3992    1.0000 </r>
       <r>    7.4081    1.0000 </r>
       <r>    8.0026    0.5527 </r>
       <r>    8.0692    0.0400 </r>
       <r>    8.1084    0.0021 </r>
       <r>    8.2142    0.0000 </r>
       <r>    8.2479    0.0000 </r>
       <r>    8.3069    0.0000 </r>
       <r>    8.9462    0.0000 </r>
       <r>    8.9861    0.0000 </r>
       <r>    8.9975    0.0000 </r>
       <r>    9.0268    0.0000 </r>
       <r>    9.0613    0.0000 </r>
       <r>    9.0751    0.0000 </r>
       <r>    9.1033    0.0000 </r>
       <r>    9.1231    0.0000 </r>
       <r>    9.1793    0.0000 </r>
       <r>    9.1899    0.0000 </r>
       <r>    9.2334    0.0000 </r>
       <r>    9.2840    0.0000 </r>
       <r>    9.2868    0.0000 </r>
       <r>    9.3077    0.0000 </r>
       <r>    9.3727    0.0000 </r>
       <r>    9.4225    0.0000 </r>
       <r>    9.4368    0.0000 </r>
       <r>    9.5173    0.0000 </r>
       <r>   10.5660    0.0000 </r>
       <r>   10.6203    0.0000 </r>
       <r>   10.6341    0.0000 </r>
      </set>
      <set comment="kpoint 2">
       <r>   -3.1298    1.0000 </r>
       <r>   -1.4004    1.0000 </r>
       <r>   -1.0189    1.0000 </r>
       <r>   -0.8979    1.0000 </r>
       <r>   -0.8314    1.0000 </r>
       <r>   -0.7814    1.0000 </r>
       <r>   -0.3703    1.0000 </r>
       <r>    0.6722    1.0000 </r>
       <r>    0.8078    1.0000 </r>
       <r>    0.8482    1.0000 </r>
       <r>    0.9314    1.0000 </r>
       <r>    1.2482    1.0000 </r>
       <r>    1.3044    1.0000 </r>
       <r>    1.3686    1.0000 </r>
       <r>    1.4164    1.0000 </r>
       <r>    1.7279    1.0000 </r>
       <r>    1.8509    1.0000 </r>
       <r>    1.9369    1.0000 </r>
       <r>    1.9497    1.0000 </r>
       <r>    2.9546    1.0000 </r>
       <r>    3.0049    1.0000 </r>
       <r>    3.0711    1.0000 </r>
       <r>    3.1260    1.0000 </r>
       <r>    3.9433    1.0000 </r>
       <r>    4.0002    1.0000 </r>
       <r>    4.0622    1.0000 </r>
       <r>    4.1112    1.0000 </r>
       <r>    4.5993    1.0000 </r>
       <r>    5.0776    1.0000 </r>
       <r>    5.1172    1.0000 </r>
       <r>    6.3590    1.0000 </r>
       <r>    6.3647    1.0000 </r>
       <r>    6.4796    1.0000 </r>
       <r>    6.5986    1.0000 </r>
       <r>    6.6553    1.0000 </r>
       <r>    6.6980    1.0000 </r>
       <r>    6.7695    1.0000 </r>
       <r>    6.8735    1.0000 </r>
       <r>    6.8839    1.0000 </r>
       <r>    7.0890    1.0000 </r>
       <r>    7.1895    1.0000 </r>
       <r>    7.2281    1.0000 </r>
       <r>    7.2839    1.0000 </r>
       <r>    7.6352    1.0000 </r>
       <r>    7.6890    1.0000 </r>
       <r>    7.9764    0.8091 </r>
       <r>    7.9963    0.6219 </r>
       <r>    8.2820    0.0000 </r>
       <r>    8.3759    0.0000 </r>
       <r>    8.4111    0.0000 </r>
       <r>    8.5342    0.0000 </r>
       <r>    8.6153    0.0000 </r>
       <r>    8.7417    0.0000 </r>
       <r>    8.7621    0.0000 </r>
       <r>    8.8263    0.0000 </r>
       <r>    8.8388    0.0000 </r>
       <r>    8.8911    0.0000 </r>
       <r>    8.9470    0.0000 </r>
       <r>    8.9876    0.0000 </r>
       <r>    9.2642    0.0000 </r>
       <r>    9.2831    0.0000 </r>
       <r>    9.2990    0.0000 </r>
       <r>    9.3585    0.0000 </r>
       <r>    9.3894    0.0000 </r>
       <r>    9.4081    0.0000 </r>
       <r>    9.6222    0.0000 </r>
       <r>    9.7691    0.0000 </r>
       <r>    9.8121    0.0000 </r>
       <r>    9.8391    0.0000 </r>
       <r>   10.2572    0.0000 </r>
       <r>   10.2692    0.0000 </r>
       <r>   10.3156    0.0000 </r>
      </set>
      <set comment="kpoint 3">
       <r>   -3.1298    1.0000 </r>
       <r>   -1.4037    1.0000 </r>
       <r>   -0.9733    1.0000 </r>
       <r>   -0.9492    1.0000 </r>
       <r>   -0.8290    1.0000 </r>
       <r>   -0.7780    1.0000 </r>
       <r>   -0.3661    1.0000 </r>
       <r>    0.7126    1.0000 </r>
       <r>    0.7505    1.0000 </r>
       <r>    0.8567    1.0000 </r>
       <r>    0.9240    1.0000 </r>
       <r>    1.2127    1.0000 </r>
       <r>    1.3355    1.0000 </r>
       <r>    1.3664    1.0000 </r>
       <r>    1.4599    1.0000 </r>
       <r>    1.7640    1.0000 </r>
       <r>    1.7917    1.0000 </r>
       <r>    1.9172    1.0000 </r>
       <r>    1.9724    1.0000 </r>
       <r>    2.9134    1.0000 </r>
       <r>    3.0292    1.0000 </r>
       <r>    3.0678    1.0000 </r>
       <r>    3.1576    1.0000 </r>
       <r>    3.8949    1.0000 </r>
       <r>    4.0123    1.0000 </r>
       <r>    4.0543    1.0000 </r>
       <r>    4.1437    1.0000 </r>
       <r>    4.5758    1.0000 </r>
       <r>    5.1049    1.0000 </r>
       <r>    5.1256    1.0000 </r>
       <r>    6.3384    1.0000 </r>
       <r>    6.3618    1.0000 </r>
       <r>    6.4748    1.0000 </r>
       <r>    6.5329    1.0000 </r>
       <r>    6.6595    1.0000 </r>
       <r>    6.7180    1.0000 </r>
       <r>    6.8128    1.0000 </r>
       <r>    6.8380    1.0000 </r>
       <r>    6.9443    1.0000 </r>
       <r>    7.1363    1.0000 </r>
       <r>    7.1494    1.0000 </r>
       <r>    7.2138    1.0000 </r>
       <r>    7.2995    1.0000 </r>
       <r>    7.6465    1.0000 </r>
       <r>    7.6845    1.0000 </r>
       <r>    7.9222    0.9919 </r>
       <r>    7.9896    0.6911 </r>
       <r>    8.3481    0.0000 </r>
       <r>    8.3979    0.0000 </r>
       <r>    8.4547    0.0000 </r>
       <r>    8.4659    0.0000 </r>
       <r>    8.5904    0.0000 </r>
       <r>    8.6828    0.0000 </r>
       <r>    8.7395    0.0000 </r>
       <r>    8.8051    0.0000 </r>
       <r>    8.8223    0.0000 </r>
       <r>    8.8867    0.0000 </r>
       <r>    8.9751    0.0000 </r>
       <r>    9.0590    0.0000 </r>
       <r>    9.2628    0.0000 </r>
       <r>    9.2938    0.0000 </r>
       <r>    9.3097    0.0000 </r>
       <r>    9.3680    0.0000 </r>
       <r>    9.4041    0.0000 </r>
       <r>    9.4358    0.0000 </r>
       <r>    9.6751    0.0000 </r>
       <r>    9.6962    0.0000 </r>
       <r>    9.8139    0.0000 </r>
       <r>    9.8476    0.0000 </r>
       <r>   10.2218    0.0000 </r>
       <r>   10.2635    0.0000 </r>
       <r>   10.3519    0.0000 </r>
      </set>
      <set comment="kpoint 4">
       <r>   -3.1298    1.0000 </r>
       <r>   -1.4055    1.0000 </r>
       <r>   -0.9624    1.0000 </r>
       <r>   -0.9431    1.0000 </r>
       <r>   -0.8727    1.0000 </r>
       <r>   -0.7400    1.0000 </r>
       <r>   -0.3777    1.0000 </r>
       <r>    0.7120    1.0000 </r>
       <r>    0.7493    1.0000 </r>
       <r>    0.8327    1.0000 </r>
       <r>    0.9615    1.0000 </r>
       <r>    1.2445    1.0000 </r>
       <r>    1.2899    1.0000 </r>
       <r>    1.3811    1.0000 </r>
       <r>    1.4400    1.0000 </r>
       <r>    1.7889    1.0000 </r>
       <r>    1.8182    1.0000 </r>
       <r>    1.8460    1.0000 </r>
       <r>    1.9971    1.0000 </r>
       <r>    2.9643    1.0000 </r>
       <r>    2.9788    1.0000 </r>
       <r>    3.0948    1.0000 </r>
       <r>    3.1248    1.0000 </r>
       <r>    3.9479    1.0000 </r>
       <r>    3.9702    1.0000 </r>
       <r>    4.0872    1.0000 </r>
       <r>    4.1078    1.0000 </r>
       <r>    4.6013    1.0000 </r>
       <r>    5.0816    1.0000 </r>
       <r>    5.1133    1.0000 </r>
       <r>    6.3373    1.0000 </r>
       <r>    6.3630    1.0000 </r>
       <r>    6.5236    1.0000 </r>
       <r>    6.5782    1.0000 </r>
       <r>    6.5971    1.0000 </r>
       <r>    6.7141    1.0000 </r>
       <r>    6.7749    1.0000 </r>
       <r>    6.8649    1.0000 </r>
       <r>    6.9147    1.0000 </r>
       <r>    7.1418    1.0000 </r>
       <r>    7.1707    1.0000 </r>
       <r>    7.2178    1.0000 </r>
       <r>    7.3042    1.0000 </r>
       <r>    7.6299    1.0000 </r>
       <r>    7.6854    1.0000 </r>
       <r>    7.9329    0.9823 </r>
       <r>    7.9831    0.7531 </r>
       <r>    8.3079    0.0000 </r>
       <r>    8.4004    0.0000 </r>
       <r>    8.4450    0.0000 </r>
       <r>    8.4576    0.0000 </r>
       <r>    8.6417    0.0000 </r>
       <r>    8.7043    0.0000 </r>
       <r>    8.7742    0.0000 </r>
       <r>    8.8235    0.0000 </r>
       <r>    8.8502    0.0000 </r>
       <r>    8.8790    0.0000 </r>
       <r>    8.9253    0.0000 </r>
       <r>    9.0284    0.0000 </r>
       <r>    9.2713    0.0000 </r>
       <r>    9.2998    0.0000 </r>
       <r>    9.3196    0.0000 </r>
       <r>    9.3506    0.0000 </r>
       <r>    9.3791    0.0000 </r>
       <r>    9.4401    0.0000 </r>
       <r>    9.6628    0.0000 </r>
       <r>    9.6941    0.0000 </r>
       <r>    9.7610    0.0000 </r>
       <r>    9.8737    0.0000 </r>
       <r>   10.2321    0.0000 </r>
       <r>   10.3016    0.0000 </r>
       <r>   10.3387    0.0000 </r>
      </set>
      <set comment="kpoint 5">
       <r>   -3.0465    1.0000 </r>
       <r>   -1.8013    1.0000 </r>
       <r>   -0.9397    1.0000 </r>
       <r>   -0.8175    1.0000 </r>
       <r>   -0.7511    1.0000 </r>
       <r>   -0.6992    1.0000 </r>
       <r>    0.1713    1.0000 </r>
       <r>    0.2872    1.0000 </r>
       <r>    0.4304    1.0000 </r>
       <r>    0.4755    1.0000 </r>
       <r>    0.5363    1.0000 </r>
       <r>    1.3291    1.0000 </r>
       <r>    1.3832    1.0000 </r>
       <r>    1.4515    1.0000 </r>
       <r>    1.4912    1.0000 </r>
       <r>    2.2559    1.0000 </r>
       <r>    2.3936    1.0000 </r>
       <r>    2.4539    1.0000 </r>
       <r>    2.4719    1.0000 </r>
       <r>    2.5855    1.0000 </r>
       <r>    2.6362    1.0000 </r>
       <r>    2.6841    1.0000 </r>
       <r>    2.7521    1.0000 </r>
       <r>    3.8075    1.0000 </r>
       <r>    4.4879    1.0000 </r>
       <r>    4.5436    1.0000 </r>
       <r>    4.6085    1.0000 </r>
       <r>    4.6568    1.0000 </r>
       <r>    5.1499    1.0000 </r>
       <r>    5.1925    1.0000 </r>
       <r>    5.7563    1.0000 </r>
       <r>    5.8878    1.0000 </r>
       <r>    5.9791    1.0000 </r>
       <r>    5.9930    1.0000 </r>
       <r>    6.3055    1.0000 </r>
       <r>    6.3817    1.0000 </r>
       <r>    6.4815    1.0000 </r>
       <r>    6.4977    1.0000 </r>
       <r>    7.1321    1.0000 </r>
       <r>    7.2157    1.0000 </r>
       <r>    7.2980    1.0000 </r>
       <r>    7.3179    1.0000 </r>
       <r>    7.6330    1.0000 </r>
       <r>    7.6751    1.0000 </r>
       <r>    7.7900    1.0000 </r>
       <r>    7.9444    0.9624 </r>
       <r>    8.0230    0.3284 </r>
       <r>    8.0723    0.0330 </r>
       <r>    8.1296    0.0003 </r>
       <r>    8.1859    0.0000 </r>
       <r>    8.2492    0.0000 </r>
       <r>    8.3306    0.0000 </r>
       <r>    8.4444    0.0000 </r>
       <r>    8.5019    0.0000 </r>
       <r>    8.5124    0.0000 </r>
       <r>    8.5866    0.0000 </r>
       <r>    8.6593    0.0000 </r>
       <r>    8.6746    0.0000 </r>
       <r>    8.7727    0.0000 </r>
       <r>    9.7072    0.0000 </r>
       <r>    9.7643    0.0000 </r>
       <r>    9.7931    0.0000 </r>
       <r>    9.8464    0.0000 </r>
       <r>    9.8716    0.0000 </r>
       <r>    9.9507    0.0000 </r>
       <r>   10.0300    0.0000 </r>
       <r>   10.1307    0.0000 </r>
       <r>   10.1610    0.0000 </r>
       <r>   10.2000    0.0000 </r>
       <r>   10.2247    0.0000 </r>
       <r>   10.3443    0.0000 </r>
       <r>   10.3775    0.0000 </r>
      </set>
      <set comment="kpoint 6">
       <r>   -3.0462    1.0000 </r>
       <r>   -1.8034    1.0000 </r>
       <r>   -0.8935    1.0000 </r>
       <r>   -0.8700    1.0000 </r>
[...]
       <r>    2.7233    1.0000 </r>
       <r>    2.8022    1.0000 </r>
       <r>    2.8844    1.0000 </r>
       <r>    2.9092    1.0000 </r>
       <r>    2.9939    1.0000 </r>
       <r>    3.0832    1.0000 </r>
       <r>    3.1227    1.0000 </r>
       <r>    3.2425    1.0000 </r>
       <r>    3.2767    1.0000 </r>
       <r>    3.3367    1.0000 </r>
       <r>    3.3754    1.0000 </r>
       <r>    3.4428    1.0000 </r>
       <r>    3.4770    1.0000 </r>
       <r>    3.5706    1.0000 </r>
       <r>    3.6463    1.0000 </r>
       <r>    3.6977    1.0000 </r>
       <r>    6.3418    1.0000 </r>
       <r>    6.4182    1.0000 </r>
       <r>    6.4586    1.0000 </r>
       <r>    6.5983    1.0000 </r>
       <r>    6.6645    1.0000 </r>
       <r>    6.7387    1.0000 </r>
       <r>    7.0396    1.0000 </r>
       <r>    7.0603    1.0000 </r>
       <r>    7.0829    1.0000 </r>
       <r>    7.1072    1.0000 </r>
       <r>    7.1703    1.0000 </r>
       <r>    7.2070    1.0000 </r>
       <r>    7.3084    1.0000 </r>
       <r>    7.3464    1.0000 </r>
       <r>    7.3874    1.0000 </r>
       <r>    7.4264    1.0000 </r>
       <r>    7.4822    1.0000 </r>
       <r>    7.5276    1.0000 </r>
       <r>    7.7757    1.0000 </r>
       <r>    7.8339    1.0000 </r>
       <r>    7.8968    0.9991 </r>
       <r>    8.0468    0.1320 </r>
       <r>    8.1283    0.0003 </r>
       <r>    8.1798    0.0000 </r>
       <r>   10.3696    0.0000 </r>
       <r>   10.6910    0.0000 </r>
       <r>   10.7624    0.0000 </r>
       <r>   10.8504    0.0000 </r>
       <r>   10.9446    0.0000 </r>
       <r>   10.9941    0.0000 </r>
       <r>   11.0370    0.0000 </r>
       <r>   11.0621    0.0000 </r>
       <r>   11.0744    0.0000 </r>
       <r>   11.1163    0.0000 </r>
       <r>   11.1449    0.0000 </r>
       <r>   11.1891    0.0000 </r>
       <r>   11.2230    0.0000 </r>
       <r>   11.3317    0.0000 </r>
       <r>   11.3726    0.0000 </r>
       <r>   11.4187    0.0000 </r>
      </set>
     </set>
    </set>
   </array>
  </eigenvalues>
  <separator name="orbital magnetization" >
   <v name="MAGDIPOLOUT">      0.00000000      0.00000000      0.00000000</v>
  </separator>
  <dos>
   <i name="efermi">      8.00728009 </i>
   <total>
    <array>
     <dimension dim="1">gridpoints</dimension>
     <dimension dim="2">spin</dimension>
     <field>energy</field>
     <field>total</field>
     <field>integrated</field>
     <set>
      <set comment="spin 1">
       <r>    -3.9032     0.0000     0.0000 </r>
       <r>    -3.8485     0.0000     0.0000 </r>
       <r>    -3.7939     0.0000     0.0000 </r>
       <r>    -3.7392     0.0000     0.0000 </r>
       <r>    -3.6845     0.0000     0.0000 </r>
       <r>    -3.6298     0.0000     0.0000 </r>
       <r>    -3.5752     0.0000     0.0000 </r>
       <r>    -3.5205     0.0000     0.0000 </r>
       <r>    -3.4658     0.0000     0.0000 </r>
       <r>    -3.4111     0.0000     0.0000 </r>
       <r>    -3.3565     0.0000     0.0000 </r>
       <r>    -3.3018     0.0000     0.0000 </r>
       <r>    -3.2471     0.0004     0.0000 </r>
       <r>    -3.1924     0.0226     0.0013 </r>
       <r>    -3.1378     0.2465     0.0147 </r>
       <r>    -3.0831     0.7279     0.0545 </r>
       <r>    -3.0284     1.1597     0.1179 </r>
       <r>    -2.9737     1.5301     0.2016 </r>
       <r>    -2.9190     1.5104     0.2842 </r>
       <r>    -2.8644     2.1264     0.4005 </r>
       <r>    -2.8097     2.0754     0.5139 </r>
       <r>    -2.7550     2.3063     0.6400 </r>
       <r>    -2.7003     2.1112     0.7555 </r>
       <r>    -2.6457     2.9646     0.9176 </r>
       <r>    -2.5910     3.0589     1.0848 </r>
       <r>    -2.5363     2.6792     1.2313 </r>
       <r>    -2.4816     2.2199     1.3527 </r>
       <r>    -2.4270     3.5830     1.5486 </r>
       <r>    -2.3723     3.6364     1.7474 </r>
       <r>    -2.3176     3.6288     1.9458 </r>
       <r>    -2.2629     2.7841     2.0980 </r>
       <r>    -2.2083     3.6411     2.2971 </r>
       <r>    -2.1536     3.9666     2.5140 </r>
       <r>    -2.0989     3.7912     2.7213 </r>
       <r>    -2.0442     4.1680     2.9492 </r>
       <r>    -1.9896     4.4276     3.1913 </r>
       <r>    -1.9349     4.2813     3.4254 </r>
       <r>    -1.8802     3.2040     3.6005 </r>
       <r>    -1.8255     3.3723     3.7849 </r>
       <r>    -1.7708     3.9843     4.0028 </r>
       <r>    -1.7162     5.5485     4.3061 </r>
       <r>    -1.6615     5.3108     4.5965 </r>
       <r>    -1.6068     4.0728     4.8192 </r>
       <r>    -1.5521     3.9139     5.0332 </r>
       <r>    -1.4975     4.8775     5.2999 </r>
       <r>    -1.4428     4.7660     5.5605 </r>
       <r>    -1.3881     4.7398     5.8196 </r>
       <r>    -1.3334     5.3031     6.1096 </r>
       <r>    -1.2788     6.1014     6.4432 </r>
       <r>    -1.2241     4.7799     6.7045 </r>
       <r>    -1.1694     4.0099     6.9238 </r>
       <r>    -1.1147     5.8992     7.2463 </r>
       <r>    -1.0601     6.6776     7.6114 </r>
       <r>    -1.0054     5.6332     7.9194 </r>
       <r>    -0.9507     4.3499     8.1573 </r>
       <r>    -0.8960     4.4990     8.4033 </r>
       <r>    -0.8413     5.7909     8.7199 </r>
       <r>    -0.7867     6.5389     9.0774 </r>
       <r>    -0.7320     6.6950     9.4435 </r>
       <r>    -0.6773     7.1385     9.8338 </r>
       <r>    -0.6226     5.5509    10.1373 </r>
       <r>    -0.5680     5.4179    10.4335 </r>
       <r>    -0.5133     4.5242    10.6809 </r>
       <r>    -0.4586     5.7028    10.9927 </r>
       <r>    -0.4039     7.6205    11.4093 </r>
       <r>    -0.3493     6.7393    11.7778 </r>
       <r>    -0.2946     6.8193    12.1507 </r>
       <r>    -0.2399     6.3838    12.4997 </r>
       <r>    -0.1852     6.1924    12.8383 </r>
       <r>    -0.1306     6.4437    13.1906 </r>
       <r>    -0.0759     6.3606    13.5384 </r>
       <r>    -0.0212     7.0868    13.9259 </r>
       <r>     0.0335     7.2305    14.3212 </r>
       <r>     0.0882     6.4442    14.6736 </r>
       <r>     0.1428     6.4024    15.0236 </r>
       <r>     0.1975     6.9514    15.4037 </r>
       <r>     0.2522     7.2573    15.8005 </r>
       <r>     0.3069     6.7027    16.1670 </r>
       <r>     0.3615     6.6273    16.5293 </r>
       <r>     0.4162     6.8656    16.9047 </r>
       <r>     0.4709     8.0827    17.3467 </r>
       <r>     0.5256     7.7756    17.7718 </r>
       <r>     0.5802     7.0812    18.1590 </r>
       <r>     0.6349     6.7375    18.5273 </r>
       <r>     0.6896     6.8637    18.9026 </r>
       <r>     0.7443     7.1206    19.2920 </r>
       <r>     0.7989     5.9559    19.6176 </r>
       <r>     0.8536     7.1557    20.0089 </r>
       <r>     0.9083     9.0955    20.5062 </r>
       <r>     0.9630     8.1088    20.9495 </r>
       <r>     1.0177     8.1151    21.3932 </r>
       <r>     1.0723     9.5987    21.9181 </r>
       <r>     1.1270     7.9134    22.3507 </r>
       <r>     1.1817     6.5815    22.7106 </r>
       <r>     1.2364     7.2405    23.1065 </r>
       <r>     1.2910     7.2117    23.5008 </r>
       <r>     1.3457     8.2818    23.9536 </r>
       <r>     1.4004     8.8911    24.4397 </r>
       <r>     1.4551     7.1709    24.8318 </r>
       <r>     1.5097     7.7072    25.2532 </r>
       <r>     1.5644    10.1193    25.8065 </r>
       <r>     1.6191     8.8723    26.2916 </r>
       <r>     1.6738     7.4521    26.6991 </r>
       <r>     1.7284     6.9400    27.0785 </r>
       <r>     1.7831     9.1081    27.5765 </r>
       <r>     1.8378    10.1036    28.1289 </r>
       <r>     1.8925     8.8155    28.6109 </r>
       <r>     1.9471     9.7092    29.1418 </r>
       <r>     2.0018     9.0795    29.6382 </r>
       <r>     2.0565     7.2482    30.0345 </r>
       <r>     2.1112     6.7476    30.4035 </r>
       <r>     2.1659     8.0136    30.8416 </r>
       <r>     2.2205     9.1996    31.3446 </r>
       <r>     2.2752    10.0997    31.8968 </r>
       <r>     2.3299     9.5924    32.4213 </r>
       <r>     2.3846     7.6654    32.8404 </r>
       <r>     2.4392     9.1374    33.3400 </r>
       <r>     2.4939    12.4331    34.0198 </r>
       <r>     2.5486     9.8822    34.5601 </r>
       <r>     2.6033     8.2795    35.0128 </r>
       <r>     2.6579     9.0376    35.5070 </r>
       <r>     2.7126     9.6823    36.0364 </r>
       <r>     2.7673     8.4665    36.4993 </r>
       <r>     2.8220     8.3105    36.9537 </r>
       <r>     2.8766     9.0624    37.4492 </r>
       <r>     2.9313     8.8183    37.9313 </r>
       <r>     2.9860     8.9095    38.4185 </r>
       <r>     3.0407    10.3053    38.9819 </r>
       <r>     3.0954    11.7329    39.6234 </r>
       <r>     3.1500    10.8425    40.2163 </r>
       <r>     3.2047    10.0489    40.7657 </r>
       <r>     3.2594    10.7940    41.3559 </r>
       <r>     3.3141    10.5713    41.9339 </r>
       <r>     3.3687     8.7161    42.4105 </r>
       <r>     3.4234     8.3071    42.8647 </r>
       <r>     3.4781     9.4720    43.3825 </r>
       <r>     3.5328    10.7644    43.9711 </r>
       <r>     3.5874    10.8849    44.5663 </r>
       <r>     3.6421    11.0245    45.1690 </r>
       <r>     3.6968    11.4971    45.7977 </r>
       <r>     3.7515     9.3089    46.3066 </r>
       <r>     3.8061     8.0365    46.7460 </r>
       <r>     3.8608     8.3709    47.2037 </r>
       <r>     3.9155    11.0134    47.8059 </r>
       <r>     3.9702    12.3080    48.4789 </r>
       <r>     4.0249    11.4328    49.1040 </r>
       <r>     4.0795    11.7033    49.7439 </r>
       <r>     4.1342    10.2115    50.3022 </r>
       <r>     4.1889    10.3865    50.8701 </r>
       <r>     4.2436    10.8530    51.4635 </r>
       <r>     4.2982    11.5528    52.0951 </r>
       <r>     4.3529    13.0652    52.8095 </r>
       <r>     4.4076    10.3303    53.3743 </r>
       <r>     4.4623     9.0682    53.8701 </r>
       <r>     4.5169     8.9411    54.3590 </r>
       <r>     4.5716     9.0854    54.8558 </r>
       <r>     4.6263    11.0475    55.4598 </r>
       <r>     4.6810    12.5558    56.1463 </r>
       <r>     4.7356    12.9204    56.8527 </r>
       <r>     4.7903    12.4902    57.5357 </r>
       <r>     4.8450    12.4527    58.2165 </r>
       <r>     4.8997    13.0875    58.9321 </r>
       <r>     4.9543    12.0532    59.5911 </r>
       <r>     5.0090    10.4978    60.1651 </r>
       <r>     5.0637    10.0977    60.7172 </r>
       <r>     5.1184    12.0664    61.3770 </r>
       <r>     5.1731    13.0102    62.0883 </r>
       <r>     5.2277    12.1375    62.7520 </r>
       <r>     5.2824    11.7763    63.3958 </r>
       <r>     5.3371    12.6043    64.0850 </r>
       <r>     5.3918    12.4506    64.7658 </r>
       <r>     5.4464    11.1513    65.3755 </r>
       <r>     5.5011    11.0706    65.9808 </r>
       <r>     5.5558    12.5925    66.6693 </r>
       <r>     5.6105    13.0447    67.3825 </r>
       <r>     5.6651    11.9462    68.0357 </r>
       <r>     5.7198    12.1550    68.7003 </r>
       <r>     5.7745    11.4911    69.3286 </r>
       <r>     5.8292     9.5995    69.8534 </r>
       <r>     5.8838    11.5917    70.4872 </r>
       <r>     5.9385    12.3780    71.1640 </r>
       <r>     5.9932    10.1055    71.7165 </r>
       <r>     6.0479     9.8290    72.2540 </r>
       <r>     6.1026    11.6375    72.8903 </r>
       <r>     6.1572    12.7130    73.5854 </r>
       <r>     6.2119    11.5991    74.2195 </r>
       <r>     6.2666    10.7022    74.8047 </r>
       <r>     6.3213    12.0859    75.4655 </r>
       <r>     6.3759    12.1008    76.1271 </r>
       <r>     6.4306    12.5656    76.8142 </r>
       <r>     6.4853    12.1117    77.4764 </r>
       <r>     6.5400    10.2273    78.0356 </r>
       <r>     6.5946    10.3113    78.5994 </r>
       <r>     6.6493    10.6596    79.1822 </r>
       <r>     6.7040    11.2595    79.7978 </r>
       <r>     6.7587    11.6308    80.4338 </r>
       <r>     6.8133    11.5763    81.0667 </r>
       <r>     6.8680    13.6336    81.8122 </r>
       <r>     6.9227    13.6929    82.5608 </r>
       <r>     6.9774    13.7850    83.3146 </r>
       <r>     7.0321    14.3996    84.1019 </r>
       <r>     7.0867    12.3862    84.7791 </r>
       <r>     7.1414    11.2170    85.3924 </r>
       <r>     7.1961    12.3636    86.0684 </r>
       <r>     7.2508    11.7052    86.7084 </r>
       <r>     7.3054    11.2884    87.3256 </r>
       <r>     7.3601    13.4313    88.0600 </r>
       <r>     7.4148    12.6656    88.7525 </r>
       <r>     7.4695    10.6505    89.3348 </r>
       <r>     7.5241    12.4610    90.0161 </r>
       <r>     7.5788    12.6392    90.7072 </r>
       <r>     7.6335    12.4517    91.3880 </r>
       <r>     7.6882    13.3336    92.1171 </r>
       <r>     7.7428    11.7908    92.7617 </r>
       <r>     7.7975    10.0475    93.3111 </r>
       <r>     7.8522    10.5692    93.8890 </r>
       <r>     7.9069    13.3533    94.6191 </r>
       <r>     7.9616    13.7928    95.3732 </r>
       <r>     8.0162    13.6106    96.1174 </r>
       <r>     8.0709    12.4182    96.7964 </r>
       <r>     8.1256    13.7950    97.5507 </r>
       <r>     8.1803    14.0954    98.3213 </r>
       <r>     8.2349    12.9180    99.0277 </r>
       <r>     8.2896    14.7676    99.8351 </r>
       <r>     8.3443    14.9604   100.6531 </r>
       <r>     8.3990    15.0278   101.4747 </r>
       <r>     8.4536    13.9125   102.2354 </r>
       <r>     8.5083    12.9884   102.9456 </r>
       <r>     8.5630    12.4993   103.6290 </r>
       <r>     8.6177     9.9515   104.1731 </r>
       <r>     8.6723    11.5521   104.8047 </r>
       <r>     8.7270    13.3003   105.5319 </r>
       <r>     8.7817    12.6322   106.2226 </r>
       <r>     8.8364    12.5577   106.9092 </r>
       <r>     8.8910    12.6994   107.6036 </r>
       <r>     8.9457    13.7115   108.3533 </r>
       <r>     9.0004    16.0853   109.2328 </r>
       <r>     9.0551    16.0898   110.1125 </r>
       <r>     9.1098    14.8891   110.9266 </r>
       <r>     9.1644    15.6620   111.7829 </r>
       <r>     9.2191    14.6209   112.5823 </r>
       <r>     9.2738    12.9998   113.2931 </r>
       <r>     9.3285    13.1849   114.0140 </r>
       <r>     9.3831    11.9775   114.6689 </r>
       <r>     9.4378    11.8489   115.3168 </r>
       <r>     9.4925    12.4097   115.9953 </r>
       <r>     9.5472    12.5787   116.6831 </r>
       <r>     9.6018    13.7046   117.4324 </r>
       <r>     9.6565    13.1812   118.1531 </r>
       <r>     9.7112    13.2224   118.8760 </r>
       <r>     9.7659    15.4833   119.7226 </r>
       <r>     9.8205    17.4282   120.6755 </r>
       <r>     9.8752    16.7036   121.5888 </r>
       <r>     9.9299    13.6971   122.3377 </r>
       <r>     9.9846    14.2116   123.1147 </r>
       <r>    10.0393    15.7007   123.9732 </r>
       <r>    10.0939    13.9260   124.7346 </r>
       <r>    10.1486    11.6571   125.3720 </r>
       <r>    10.2033    13.1441   126.0907 </r>
       <r>    10.2580    13.9019   126.8508 </r>
       <r>    10.3126    13.9130   127.6115 </r>
       <r>    10.3673    13.1359   128.3297 </r>
       <r>    10.4220    14.7177   129.1344 </r>
       <r>    10.4767    17.2100   130.0754 </r>
       <r>    10.5313    15.3636   130.9154 </r>
       <r>    10.5860    15.4961   131.7627 </r>
       <r>    10.6407    15.2223   132.5950 </r>
       <r>    10.6954    14.4545   133.3853 </r>
       <r>    10.7500    15.0622   134.2089 </r>
       <r>    10.8047    14.0246   134.9757 </r>
       <r>    10.8594    13.3157   135.7037 </r>
       <r>    10.9141    13.8440   136.4607 </r>
       <r>    10.9688    12.7193   137.1561 </r>
       <r>    11.0234    13.0992   137.8723 </r>
       <r>    11.0781    12.9247   138.5790 </r>
       <r>    11.1328    12.2338   139.2479 </r>
       <r>    11.1875    10.7474   139.8355 </r>
       <r>    11.2421    10.8818   140.4305 </r>
       <r>    11.2968    11.9881   141.0860 </r>
       <r>    11.3515    11.0870   141.6922 </r>
       <r>    11.4062    11.5893   142.3258 </r>
       <r>    11.4608     9.0321   142.8197 </r>
       <r>    11.5155     5.3741   143.1135 </r>
       <r>    11.5702     5.0555   143.3899 </r>
       <r>    11.6249     5.3764   143.6839 </r>
       <r>    11.6795     3.3798   143.8687 </r>
       <r>    11.7342     1.7432   143.9640 </r>
       <r>    11.7889     0.5820   143.9958 </r>
       <r>    11.8436     0.0745   143.9999 </r>
       <r>    11.8983     0.0019   144.0000 </r>
       <r>    11.9529     0.0000   144.0000 </r>
       <r>    12.0076     0.0000   144.0000 </r>
       <r>    12.0623     0.0000   144.0000 </r>
       <r>    12.1170     0.0000   144.0000 </r>
       <r>    12.1716     0.0000   144.0000 </r>
       <r>    12.2263     0.0000   144.0000 </r>
       <r>    12.2810     0.0000   144.0000 </r>
       <r>    12.3357     0.0000   144.0000 </r>
       <r>    12.3903     0.0000   144.0000 </r>
       <r>    12.4450     0.0000   144.0000 </r>
       <r>    12.4997     0.0000   144.0000 </r>
      </set>
     </set>
    </array>
   </total>
  </dos>
 </calculation>
 <structure name="finalpos" >
  <crystal>
   <varray name="basis" >
    <v>       8.07809510       0.00000000       0.00000000 </v>
    <v>       0.00000000       8.07809510       0.00000000 </v>
    <v>       0.00000000       0.00000000       8.07809510 </v>
   </varray>
   <i name="volume">    527.14110776 </i>
   <varray name="rec_basis" >
    <v>       0.12379156       0.00000000       0.00000000 </v>
    <v>       0.00000000       0.12379156       0.00000000 </v>
    <v>       0.00000000       0.00000000       0.12379156 </v>
   </varray>
  </crystal>
  <varray name="positions" >
   <v>       0.00811914       0.99060512       0.00949287 </v>
   <v>       0.01166023       0.26620066       0.26255250 </v>
   <v>       0.25002743       0.00572336       0.25679003 </v>
   <v>       0.22775729       0.24974628       0.99534362 </v>
   <v>       0.99326722       0.00513544       0.49063917 </v>
   <v>       0.98250102       0.24079381       0.75223119 </v>
   <v>       0.26192163       0.98932098       0.74118790 </v>
   <v>       0.23534450       0.25991068       0.51618638 </v>
   <v>       0.00024990       0.50808705       0.98447215 </v>
   <v>       0.97341968       0.75249351       0.22753104 </v>
   <v>       0.25949474       0.51535820       0.24347528 </v>
   <v>       0.27378326       0.75728492       0.02412920 </v>
   <v>       0.99493941       0.50059204       0.50530089 </v>
   <v>       0.00703001       0.74592214       0.74713007 </v>
   <v>       0.24629343       0.49182844       0.74151624 </v>
   <v>       0.24518547       0.75345356       0.49855244 </v>
   <v>       0.49691691       0.00700458       0.98619897 </v>
   <v>       0.49901902       0.24354638       0.24945449 </v>
   <v>       0.73472057       0.00038910       0.22865566 </v>
   <v>       0.76489780       0.23469910       0.00349231 </v>
   <v>       0.50730304       0.99544513       0.47540259 </v>
   <v>       0.50123168       0.24315046       0.72987310 </v>
   <v>       0.76289304       0.00021208       0.74313171 </v>
   <v>       0.75629086       0.24952125       0.48317716 </v>
   <v>       0.49629521       0.47450270       0.00722677 </v>
   <v>       0.50989472       0.74438127       0.24842186 </v>
   <v>       0.76379729       0.50466980       0.25400580 </v>
   <v>       0.73821428       0.75647207       0.98606261 </v>
   <v>       0.48815399       0.49091162       0.50160649 </v>
   <v>       0.49856373       0.73815909       0.74625901 </v>
   <v>       0.74044328       0.50211951       0.76302481 </v>
   <v>       0.76098626       0.74973176       0.50687765 </v>
  </varray>
 </structure>
</modeling>
