<?xml version="1.0" encoding="ISO-8859-1"?>
<modeling>
 <generator>
  <i name="program" type="string">vasp </i>
  <i name="version" type="string">6.2.0  </i>
  <i name="subversion" type="string">18Jan21 (build Mar 25 2021 14:28:09) complex                          parallel </i>
  <i name="platform" type="string">LinuxGNU </i>
  <i name="date" type="string">2021 12 20 </i>
  <i name="time" type="string">09:57:38 </i>
 </generator>
 <incar>
  <i type="string" name="SYSTEM">benzene</i>
  <i type="int" name="ISTART">     0</i>
  <i type="string" name="PREC">Accurate</i>
  <i type="string" name="ALGO">Normal</i>
  <i type="int" name="NELM">   200</i>
  <i type="int" name="IBRION">    -1</i>
  <i name="EDIFF">      0.00000100</i>
  <i type="int" name="NSW">     0</i>
  <i name="ENCUT">    600.00000000</i>
  <i type="logical" name="LREAL"> F  </i>
  <i type="int" name="ISMEAR">     0</i>
  <i name="SIGMA">      0.05000000</i>
  <i type="logical" name="LWAVE"> F  </i>
  <i type="logical" name="LCHARG"> T  </i>
  <i type="string" name="GGA">PE</i>
 </incar>
 <primitive_cell>
  <structure name="primitive_cell" >
   <crystal>
    <varray name="basis" >
     <v>      10.58354422       0.00000000       0.00000000 </v>
     <v>       0.00000000      10.58354422       0.00000000 </v>
     <v>       0.00000000       0.00000000      10.58354422 </v>
    </varray>
    <i name="volume">   1185.47769178 </i>
    <varray name="rec_basis" >
     <v>       0.09448631       0.00000000       0.00000000 </v>
     <v>       0.00000000       0.09448631       0.00000000 </v>
     <v>       0.00000000       0.00000000       0.09448631 </v>
    </varray>
   </crystal>
   <varray name="positions" >
    <v>       0.49545435       0.63102830       0.49908045 </v>
    <v>       0.38945905       0.56508530       0.50290075 </v>
    <v>       0.38883800       0.43729230       0.49789410 </v>
    <v>       0.49990730       0.36569370       0.50242340 </v>
    <v>       0.60942705       0.43489950       0.50471135 </v>
    <v>       0.61925615       0.56727710       0.49717790 </v>
    <v>       0.49565365       0.72672080       0.48793865 </v>
    <v>       0.29938925       0.60922595       0.51730375 </v>
    <v>       0.29974960       0.38936720       0.49497200 </v>
    <v>       0.49048880       0.26319190       0.48399895 </v>
    <v>       0.70169970       0.39202420       0.51829360 </v>
    <v>       0.71067705       0.61819365       0.49330515 </v>
   </varray>
  </structure>
  <varray name="primitive_index" >
   <v type="int" >        1 </v>
   <v type="int" >        2 </v>
   <v type="int" >        3 </v>
   <v type="int" >        4 </v>
   <v type="int" >        5 </v>
   <v type="int" >        6 </v>
   <v type="int" >        7 </v>
   <v type="int" >        8 </v>
   <v type="int" >        9 </v>
   <v type="int" >       10 </v>
   <v type="int" >       11 </v>
   <v type="int" >       12 </v>
  </varray>
 </primitive_cell>
 <kpoints>
  <generation param="Gamma">
   <v type="int" name="divisions">       1        1        1 </v>
   <v name="usershift">      0.00000000       0.00000000       0.00000000 </v>
   <v name="genvec1">      1.00000000       0.00000000       0.00000000 </v>
   <v name="genvec2">      0.00000000       1.00000000       0.00000000 </v>
   <v name="genvec3">      0.00000000       0.00000000       1.00000000 </v>
   <v name="shift">      0.00000000       0.00000000       0.00000000 </v>
  </generation>
  <varray name="kpointlist" >
   <v>       0.00000000       0.00000000       0.00000000 </v>
  </varray>
  <varray name="weights" >
   <v>       1.00000000 </v>
  </varray>
 </kpoints>
 <parameters>
  <separator name="general" >
   <i type="string" name="SYSTEM">benzene</i>
   <i type="logical" name="LCOMPAT"> F  </i>
  </separator>
  <separator name="electronic" >
   <i type="string" name="PREC">accura</i>
   <i name="ENMAX">    600.00000000</i>
   <i name="ENAUG">    644.87300000</i>
   <i name="EDIFF">      0.00000100</i>
   <i type="int" name="IALGO">    38</i>
   <i type="int" name="IWAVPR">    10</i>
   <i type="int" name="NBANDS">    24</i>
   <i type="int" name="NBANDSLOW">    -1</i>
   <i type="int" name="NBANDSHIGH">    -1</i>
   <i name="NELECT">     30.00000000</i>
   <i type="int" name="TURBO">     0</i>
   <i type="int" name="IRESTART">     0</i>
   <i type="int" name="NREBOOT">     0</i>
   <i type="int" name="NMIN">     0</i>
   <i name="EREF">      0.00000000</i>
   <separator name="electronic smearing" >
    <i type="int" name="ISMEAR">     0</i>
    <i name="SIGMA">      0.05000000</i>
    <i name="KSPACING">      0.50000000</i>
    <i type="logical" name="KGAMMA"> T  </i>
    <i type="logical" name="KBLOWUP"> T  </i>
   </separator>
   <separator name="electronic projectors" >
    <i type="logical" name="LREAL"> F  </i>
    <v name="ROPT">      0.00000000      0.00000000</v>
    <i type="int" name="LMAXPAW">  -100</i>
    <i type="int" name="LMAXMIX">     2</i>
    <i type="logical" name="NLSPLINE"> F  </i>
   </separator>
   <separator name="electronic startup" >
    <i type="int" name="ISTART">     0</i>
    <i type="int" name="ICHARG">     2</i>
    <i type="int" name="INIWAV">     1</i>
   </separator>
   <separator name="electronic spin" >
    <i type="int" name="ISPIN">     1</i>
    <i type="logical" name="LNONCOLLINEAR"> F  </i>
    <v name="MAGMOM">      1.00000000      1.00000000      1.00000000      1.00000000      1.00000000      1.00000000      1.00000000      1.00000000      1.00000000      1.00000000      1.00000000      1.00000000</v>
    <i name="NUPDOWN">     -1.00000000</i>
    <i type="logical" name="LSORBIT"> F  </i>
    <v name="SAXIS">      0.00000000      0.00000000      1.00000000</v>
    <i type="logical" name="LSPIRAL"> F  </i>
    <v name="QSPIRAL">      0.00000000      0.00000000      0.00000000</v>
    <i type="logical" name="LZEROZ"> F  </i>
   </separator>
   <separator name="electronic exchange-correlation" >
    <i type="logical" name="LASPH"> F  </i>
    <i type="logical" name="LMETAGGA"> F  </i>
   </separator>
   <separator name="electronic convergence" >
    <i type="int" name="NELM">   200</i>
    <i type="int" name="NELMDL">    -5</i>
    <i type="int" name="NELMIN">     2</i>
    <i name="ENINI">    600.00000000</i>
    <separator name="electronic convergence detail" >
     <i type="logical" name="LDIAG"> T  </i>
     <i type="logical" name="LSUBROT"> F  </i>
     <i name="WEIMIN">      0.00000000</i>
     <i name="EBREAK">      0.00000001</i>
     <i name="DEPER">      0.30000000</i>
     <i type="int" name="NRMM">     4</i>
     <i name="TIME">      0.40000000</i>
    </separator>
   </separator>
   <separator name="electronic mixer" >
    <i name="AMIX">      0.40000000</i>
    <i name="BMIX">      1.00000000</i>
    <i name="AMIN">      0.10000000</i>
    <i name="AMIX_MAG">      1.60000000</i>
    <i name="BMIX_MAG">      1.00000000</i>
    <separator name="electronic mixer details" >
     <i type="int" name="IMIX">     4</i>
     <i type="logical" name="MIXFIRST"> F  </i>
     <i type="int" name="MAXMIX">   -45</i>
     <i name="WC">    100.00000000</i>
     <i type="int" name="INIMIX">     1</i>
     <i type="int" name="MIXPRE">     1</i>
     <i type="int" name="MREMOVE">     5</i>
    </separator>
   </separator>
   <separator name="electronic dipolcorrection" >
    <i type="logical" name="LDIPOL"> F  </i>
    <i type="logical" name="LMONO"> F  </i>
    <i type="int" name="IDIPOL">     0</i>
    <i name="EPSILON">      1.00000000</i>
    <v name="DIPOL">   -100.00000000   -100.00000000   -100.00000000</v>
    <i name="EFIELD">      0.00000000</i>
   </separator>
  </separator>
  <separator name="grids" >
   <i type="int" name="NGX">    90</i>
   <i type="int" name="NGY">    90</i>
   <i type="int" name="NGZ">    90</i>
   <i type="int" name="NGXF">   180</i>
   <i type="int" name="NGYF">   180</i>
   <i type="int" name="NGZF">   180</i>
   <i type="logical" name="ADDGRID"> F  </i>
  </separator>
  <separator name="ionic" >
   <i type="int" name="NSW">     0</i>
   <i type="int" name="IBRION">    -1</i>
   <i type="int" name="MDALGO">     0</i>
   <i type="int" name="ISIF">     2</i>
   <i name="PSTRESS">      0.00000000</i>
   <i name="EDIFFG">      0.00001000</i>
   <i type="int" name="NFREE">     0</i>
   <i name="POTIM">      0.50000000</i>
   <i name="SMASS">     -3.00000000</i>
   <i name="SCALEE">      1.00000000</i>
  </separator>
  <separator name="ionic md" >
   <i name="TEBEG">      0.00010000</i>
   <i name="TEEND">      0.00010000</i>
   <i type="int" name="NBLOCK">     1</i>
   <i type="int" name="KBLOCK">     1</i>
   <i type="int" name="NPACO">   256</i>
   <i name="APACO">     16.00000000</i>
  </separator>
  <separator name="symmetry" >
   <i type="int" name="ISYM">     2</i>
   <i name="SYMPREC">      0.00001000</i>
  </separator>
  <separator name="dos" >
   <i type="int" name="LORBIT">     0</i>
   <v name="RWIGS">     -1.00000000     -1.00000000</v>
   <i type="int" name="NEDOS">   301</i>
   <i name="EMIN">     10.00000000</i>
   <i name="EMAX">    -10.00000000</i>
   <i name="EFERMI">      0.00000000</i>
  </separator>
  <separator name="writing" >
   <i type="int" name="NWRITE">     2</i>
   <i type="logical" name="LWAVE"> F  </i>
   <i type="logical" name="LDOWNSAMPLE"> F  </i>
   <i type="logical" name="LCHARG"> T  </i>
   <i type="logical" name="LPARD"> F  </i>
   <i type="logical" name="LVTOT"> F  </i>
   <i type="logical" name="LVHAR"> F  </i>
   <i type="logical" name="LELF"> F  </i>
   <i type="logical" name="LOPTICS"> F  </i>
   <v name="STM">      0.00000000      0.00000000      0.00000000      0.00000000      0.00000000      0.00000000      0.00000000</v>
  </separator>
  <separator name="performance" >
   <i type="int" name="NPAR">     4</i>
   <i type="int" name="NSIM">     4</i>
   <i type="int" name="NBLK">    -1</i>
   <i type="logical" name="LPLANE"> T  </i>
   <i type="logical" name="LSCALAPACK"> T  </i>
   <i type="logical" name="LSCAAWARE"> F  </i>
   <i type="logical" name="LSCALU"> F  </i>
   <i type="logical" name="LASYNC"> F  </i>
   <i type="logical" name="LORBITALREAL"> F  </i>
  </separator>
  <separator name="miscellaneous" >
   <i type="int" name="IDIOT">     3</i>
   <i type="int" name="PHON_NSTRUCT">    -1</i>
   <i type="logical" name="LMUSIC"> F  </i>
   <v name="POMASS">     12.01100000      1.00000000</v>
   <v name="DARWINR">      0.00000000      0.00000000</v>
   <v name="DARWINV">      1.00000000      1.00000000</v>
   <i type="logical" name="LCORR"> T  </i>
  </separator>
  <i type="logical" name="GGA_COMPAT"> T  </i>
  <i type="logical" name="LBERRY"> F  </i>
  <i type="int" name="ICORELEVEL">     0</i>
  <i type="logical" name="LDAU"> F  </i>
  <i type="int" name="I_CONSTRAINED_M">     0</i>
  <separator name="electronic exchange-correlation" >
   <i type="string" name="GGA">PE</i>
   <i type="int" name="VOSKOWN">     0</i>
   <i type="logical" name="LHFCALC"> F  </i>
   <i type="string" name="PRECFOCK"></i>
   <i type="logical" name="LSYMGRAD"> F  </i>
   <i type="logical" name="LHFONE"> F  </i>
   <i type="logical" name="LRHFCALC"> F  </i>
   <i type="logical" name="LTHOMAS"> F  </i>
   <i type="logical" name="LMODELHF"> F  </i>
   <i type="logical" name="LFOCKACE"> F  </i>
   <i name="ENCUT4O">     -1.00000000</i>
   <i type="int" name="EXXOEP">     0</i>
   <i type="int" name="FOURORBIT">     0</i>
   <i name="AEXX">      0.00000000</i>
   <i name="HFALPHA">      0.00000000</i>
   <i name="MCALPHA">      0.00000000</i>
   <i name="ALDAX">      1.00000000</i>
   <i name="AGGAX">      1.00000000</i>
   <i name="ALDAC">      1.00000000</i>
   <i name="AGGAC">      1.00000000</i>
   <i type="int" name="NKREDX">     1</i>
   <i type="int" name="NKREDY">     1</i>
   <i type="int" name="NKREDZ">     1</i>
   <i type="logical" name="SHIFTRED"> F  </i>
   <i type="logical" name="ODDONLY"> F  </i>
   <i type="logical" name="EVENONLY"> F  </i>
   <i type="int" name="LMAXFOCK">     0</i>
   <i type="int" name="NMAXFOCKAE">     0</i>
   <i type="logical" name="LFOCKAEDFT"> F  </i>
   <i name="HFSCREEN">      0.00000000</i>
   <i name="HFSCREENC">      0.00000000</i>
   <i type="int" name="NBANDSGWLOW">     0</i>
  </separator>
  <separator name="vdW DFT" >
   <i type="logical" name="LUSE_VDW"> F  </i>
   <i name="Zab_VDW">     -0.84910000</i>
   <i name="PARAM1">      0.12340000</i>
   <i name="PARAM2">      1.00000000</i>
   <i name="PARAM3">      0.00000000</i>
  </separator>
  <separator name="model GW" >
   <i type="int" name="MODEL_GW">     0</i>
   <i name="MODEL_EPS0">     59.27388459</i>
   <i name="MODEL_ALPHA">      1.00000000</i>
  </separator>
  <separator name="linear response parameters" >
   <i type="logical" name="LEPSILON"> F  </i>
   <i type="logical" name="LRPA"> F  </i>
   <i type="logical" name="LNABLA"> F  </i>
   <i type="logical" name="LVEL"> F  </i>
   <i type="int" name="KINTER">     0</i>
   <i name="CSHIFT">      0.10000000</i>
   <i name="OMEGAMAX">     -1.00000000</i>
   <i name="DEG_THRESHOLD">      0.00200000</i>
   <i name="RTIME">     -0.10000000</i>
   <i name="WPLASMAI">      0.00000000</i>
   <v name="DFIELD">      0.00000000      0.00000000      0.00000000</v>
   <v name="WPLASMA">      0.00000000      0.00000000      0.00000000      0.00000000      0.00000000      0.00000000      0.00000000      0.00000000      0.00000000</v>
  </separator>
  <separator name="orbital magnetization" >
   <i type="logical" name="NUCIND"> F  </i>
   <v name="MAGPOS">      0.00000000      0.00000000      0.00000000</v>
   <i type="logical" name="LNICSALL"> T  </i>
   <i type="logical" name="ORBITALMAG"> F  </i>
   <i type="logical" name="LMAGBLOCH"> F  </i>
   <i type="logical" name="LCHIMAG"> F  </i>
   <i type="logical" name="LGAUGE"> T  </i>
   <i type="int" name="MAGATOM">     0</i>
   <v name="MAGDIPOL">      0.00000000      0.00000000      0.00000000</v>
   <v name="AVECCONST">      0.00000000      0.00000000      0.00000000</v>
  </separator>
  <separator name="response functions" >
   <i type="logical" name="LFINITE_TEMPERATURE"> F  </i>
   <i type="logical" name="LADDER"> F  </i>
   <i type="logical" name="LRPAFORCE"> F  </i>
   <i type="logical" name="LFXC"> F  </i>
   <i type="logical" name="LHARTREE"> T  </i>
   <i type="int" name="IBSE">     0</i>
   <v type="int" name="KPOINT">    -1     0     0     0</v>
   <i type="logical" name="LTCTC"> F  </i>
   <i type="logical" name="LTCTE"> F  </i>
   <i type="logical" name="LTETE"> F  </i>
   <i type="logical" name="LTRIPLET"> F  </i>
   <i type="logical" name="LFXCEPS"> F  </i>
   <i type="logical" name="LFXHEG"> F  </i>
   <i type="int" name="NATURALO">     2</i>
   <i type="logical" name="LHOLEGF"> F  </i>
   <i type="logical" name="L2ORDER"> F  </i>
   <i type="logical" name="LDMP1"> F  </i>
   <i type="logical" name="LMP2LT"> F  </i>
   <i type="logical" name="LSMP2LT"> F  </i>
   <i type="logical" name="LGWLF"> F  </i>
   <i name="ENCUTGW">     -2.00000000</i>
   <i name="ENCUTGWSOFT">     -2.00000000</i>
   <i name="ENCUTLF">     -1.00000000</i>
   <i type="logical" name="LESF_SPLINES"> F  </i>
   <i type="int" name="LMAXMP2">    -1</i>
   <i name="SCISSOR">      0.00000000</i>
   <i type="int" name="NOMEGA">     0</i>
   <i type="int" name="NOMEGAR">     0</i>
   <i type="int" name="NBANDSGW">    -1</i>
   <i type="int" name="NBANDSO">    -1</i>
   <i type="int" name="NBANDSV">    -1</i>
   <i type="int" name="NELM">   200</i>
   <i type="int" name="NELMHF">     1</i>
   <i type="int" name="DIM">     3</i>
   <i type="int" name="IESPILON">     4</i>
   <i type="int" name="ANTIRES">     0</i>
   <i name="OMEGAMAX">    -30.00000000</i>
   <i name="OMEGAMIN">    -30.00000000</i>
   <i name="OMEGATL">   -200.00000000</i>
   <i type="int" name="OMEGAGRID">     0</i>
   <i name="CSHIFT">     -0.10000000</i>
   <i type="logical" name="LSELFENERGY"> F  </i>
   <i type="logical" name="LSPECTRAL"> F  </i>
   <i type="logical" name="LSPECTRALGW"> F  </i>
   <i type="logical" name="LSINGLES"> F  </i>
   <i type="logical" name="LFERMIGW"> F  </i>
   <i type="logical" name="ODDONLYGW"> F  </i>
   <i type="logical" name="EVENONLYGW"> F  </i>
   <i type="int" name="NKREDLFX">     1</i>
   <i type="int" name="NKREDLFY">     1</i>
   <i type="int" name="NKREDLFZ">     1</i>
   <i type="int" name="MAXMEM">  2800</i>
   <i type="int" name="TELESCOPE">     0</i>
   <i type="int" name="NTAUPAR">    -1</i>
   <i type="int" name="NOMEGAPAR">    -1</i>
   <i name="DAMP_NEWTON">      0.80000001</i>
   <i name="LAMBDA">      1.00000000</i>
  </separator>
  <separator name="External order field" >
   <i name="OFIELD_KAPPA">      0.00000000</i>
   <v name="OFIELD_K">      0.00000000      0.00000000      0.00000000</v>
   <i name="OFIELD_Q6_NEAR">      0.00000000</i>
   <i name="OFIELD_Q6_FAR">      0.00000000</i>
   <i name="OFIELD_A">      0.00000000</i>
  </separator>
 </parameters>
 <atominfo>
  <atoms>      12 </atoms>
  <types>       2 </types>
  <array name="atoms" >
   <dimension dim="1">ion</dimension>
   <field type="string">element</field>
   <field type="int">atomtype</field>
   <set>
    <rc><c>C </c><c>   1</c></rc>
    <rc><c>C </c><c>   1</c></rc>
    <rc><c>C </c><c>   1</c></rc>
    <rc><c>C </c><c>   1</c></rc>
    <rc><c>C </c><c>   1</c></rc>
    <rc><c>C </c><c>   1</c></rc>
    <rc><c>H </c><c>   2</c></rc>
    <rc><c>H </c><c>   2</c></rc>
    <rc><c>H </c><c>   2</c></rc>
    <rc><c>H </c><c>   2</c></rc>
    <rc><c>H </c><c>   2</c></rc>
    <rc><c>H </c><c>   2</c></rc>
   </set>
  </array>
  <array name="atomtypes" >
   <dimension dim="1">type</dimension>
   <field type="int">atomspertype</field>
   <field type="string">element</field>
   <field>mass</field>
   <field>valence</field>
   <field type="string">pseudopotential</field>
   <set>
    <rc><c>   6</c><c>C </c><c>     12.01100000</c><c>      4.00000000</c><c>  PAW_PBE C 08Apr2002                   </c></rc>
    <rc><c>   6</c><c>H </c><c>      1.00000000</c><c>      1.00000000</c><c>  PAW_PBE H 15Jun2001                   </c></rc>
   </set>
  </array>
 </atominfo>
 <structure name="initialpos" >
  <crystal>
   <varray name="basis" >
    <v>      10.58354422       0.00000000       0.00000000 </v>
    <v>       0.00000000      10.58354422       0.00000000 </v>
    <v>       0.00000000       0.00000000      10.58354422 </v>
   </varray>
   <i name="volume">   1185.47769178 </i>
   <varray name="rec_basis" >
    <v>       0.09448631       0.00000000       0.00000000 </v>
    <v>       0.00000000       0.09448631       0.00000000 </v>
    <v>       0.00000000       0.00000000       0.09448631 </v>
   </varray>
  </crystal>
  <varray name="positions" >
   <v>       0.49545435       0.63102830       0.49908045 </v>
   <v>       0.38945905       0.56508530       0.50290075 </v>
   <v>       0.38883800       0.43729230       0.49789410 </v>
   <v>       0.49990730       0.36569370       0.50242340 </v>
   <v>       0.60942705       0.43489950       0.50471135 </v>
   <v>       0.61925615       0.56727710       0.49717790 </v>
   <v>       0.49565365       0.72672080       0.48793865 </v>
   <v>       0.29938925       0.60922595       0.51730375 </v>
   <v>       0.29974960       0.38936720       0.49497200 </v>
   <v>       0.49048880       0.26319190       0.48399895 </v>
   <v>       0.70169970       0.39202420       0.51829360 </v>
   <v>       0.71067705       0.61819365       0.49330515 </v>
  </varray>
 </structure>
 <calculation>
  <scstep>
   <time name="dav">    0.22    0.22</time>
   <time name="total">    0.49    0.49</time>
   <energy>
    <i name="alphaZ">      3.48814018 </i>
    <i name="ewald">   1155.34121781 </i>
    <i name="hartreedc">  -1783.36495208 </i>
    <i name="XCdc">     91.64878407 </i>
    <i name="pawpsdc">    663.93644290 </i>
    <i name="pawaedc">   -667.40614445 </i>
    <i name="eentropy">     -0.00000000 </i>
    <i name="bandstr">   -201.98860692 </i>
    <i name="atom">    957.82965714 </i>
    <i name="e_fr_energy">    219.48453864 </i>
    <i name="e_wo_entrp">    219.48453864 </i>
    <i name="e_0_energy">    219.48453864 </i>
   </energy>
  </scstep>
  <scstep>
   <time name="dav">    0.26    0.26</time>
   <time name="total">    0.26    0.26</time>
   <energy>
    <i name="e_fr_energy">     -3.55283422 </i>
    <i name="e_wo_entrp">     -3.55283422 </i>
    <i name="e_0_energy">     -3.55283422 </i>
   </energy>
  </scstep>
  <scstep>
   <time name="dav">    0.22    0.22</time>
   <time name="total">    0.22    0.22</time>
   <energy>
    <i name="e_fr_energy">    -78.72462127 </i>
    <i name="e_wo_entrp">    -78.72462127 </i>
    <i name="e_0_energy">    -78.72462127 </i>
   </energy>
  </scstep>
  <scstep>
   <time name="dav">    0.20    0.20</time>
   <time name="total">    0.20    0.20</time>
   <energy>
    <i name="e_fr_energy">    -84.02486338 </i>
    <i name="e_wo_entrp">    -84.02486338 </i>
    <i name="e_0_energy">    -84.02486338 </i>
   </energy>
  </scstep>
  <scstep>
   <time name="dav">    0.24    0.24</time>
   <time name="total">    0.28    0.28</time>
   <energy>
    <i name="e_fr_energy">    -84.13490825 </i>
    <i name="e_wo_entrp">    -84.13490825 </i>
    <i name="e_0_energy">    -84.13490825 </i>
   </energy>
  </scstep>
  <scstep>
   <time name="dav">    0.23    0.23</time>
   <time name="total">    0.53    0.54</time>
   <energy>
    <i name="e_fr_energy">    -77.37170423 </i>
    <i name="e_wo_entrp">    -77.37170423 </i>
    <i name="e_0_energy">    -77.37170423 </i>
   </energy>
  </scstep>
  <scstep>
   <time name="dav">    0.26    0.26</time>
   <time name="total">    0.56    0.57</time>
   <energy>
    <i name="e_fr_energy">    -75.46342450 </i>
    <i name="e_wo_entrp">    -75.46342450 </i>
    <i name="e_0_energy">    -75.46342450 </i>
   </energy>
  </scstep>
  <scstep>
   <time name="dav">    0.24    0.24</time>
   <time name="total">    0.54    0.54</time>
   <energy>
    <i name="e_fr_energy">    -75.28821938 </i>
    <i name="e_wo_entrp">    -75.28821938 </i>
    <i name="e_0_energy">    -75.28821938 </i>
   </energy>
  </scstep>
  <scstep>
   <time name="dav">    0.24    0.24</time>
   <time name="total">    0.54    0.54</time>
   <energy>
    <i name="e_fr_energy">    -75.25214447 </i>
    <i name="e_wo_entrp">    -75.25214447 </i>
    <i name="e_0_energy">    -75.25214447 </i>
   </energy>
  </scstep>
  <scstep>
   <time name="dav">    0.24    0.24</time>
   <time name="total">    0.54    0.54</time>
   <energy>
    <i name="e_fr_energy">    -75.24715619 </i>
    <i name="e_wo_entrp">    -75.24715619 </i>
    <i name="e_0_energy">    -75.24715619 </i>
   </energy>
  </scstep>
  <scstep>
   <time name="dav">    0.19    0.20</time>
   <time name="total">    0.50    0.50</time>
   <energy>
    <i name="e_fr_energy">    -75.23921369 </i>
    <i name="e_wo_entrp">    -75.23921369 </i>
    <i name="e_0_energy">    -75.23921369 </i>
   </energy>
  </scstep>
  <scstep>
   <time name="dav">    0.22    0.22</time>
   <time name="total">    0.51    0.51</time>
   <energy>
    <i name="e_fr_energy">    -75.24385894 </i>
    <i name="e_wo_entrp">    -75.24385894 </i>
    <i name="e_0_energy">    -75.24385894 </i>
   </energy>
  </scstep>
  <scstep>
   <time name="dav">    0.19    0.20</time>
   <time name="total">    0.48    0.48</time>
   <energy>
    <i name="e_fr_energy">    -75.25246421 </i>
    <i name="e_wo_entrp">    -75.25246421 </i>
    <i name="e_0_energy">    -75.25246421 </i>
   </energy>
  </scstep>
  <scstep>
   <time name="dav">    0.22    0.22</time>
   <time name="total">    0.50    0.50</time>
   <energy>
    <i name="e_fr_energy">    -75.25897765 </i>
    <i name="e_wo_entrp">    -75.25897765 </i>
    <i name="e_0_energy">    -75.25897765 </i>
   </energy>
  </scstep>
  <scstep>
   <time name="dav">    0.22    0.22</time>
   <time name="total">    0.50    0.50</time>
   <energy>
    <i name="e_fr_energy">    -75.26317000 </i>
    <i name="e_wo_entrp">    -75.26317000 </i>
    <i name="e_0_energy">    -75.26317000 </i>
   </energy>
  </scstep>
  <scstep>
   <time name="dav">    0.24    0.24</time>
   <time name="total">    0.52    0.52</time>
   <energy>
    <i name="e_fr_energy">    -75.26430715 </i>
    <i name="e_wo_entrp">    -75.26430715 </i>
    <i name="e_0_energy">    -75.26430715 </i>
   </energy>
  </scstep>
  <scstep>
   <time name="dav">    0.22    0.22</time>
   <time name="total">    0.50    0.50</time>
   <energy>
    <i name="e_fr_energy">    -75.26509665 </i>
    <i name="e_wo_entrp">    -75.26509665 </i>
    <i name="e_0_energy">    -75.26509665 </i>
   </energy>
  </scstep>
  <scstep>
   <time name="dav">    0.24    0.24</time>
   <time name="total">    0.54    0.54</time>
   <energy>
    <i name="e_fr_energy">    -75.26524014 </i>
    <i name="e_wo_entrp">    -75.26524014 </i>
    <i name="e_0_energy">    -75.26524014 </i>
   </energy>
  </scstep>
  <scstep>
   <time name="dav">    0.20    0.20</time>
   <time name="total">    0.49    0.49</time>
   <energy>
    <i name="e_fr_energy">    -75.26530272 </i>
    <i name="e_wo_entrp">    -75.26530272 </i>
    <i name="e_0_energy">    -75.26530272 </i>
   </energy>
  </scstep>
  <scstep>
   <time name="dav">    0.20    0.20</time>
   <time name="total">    0.49    0.50</time>
   <energy>
    <i name="e_fr_energy">    -75.26531601 </i>
    <i name="e_wo_entrp">    -75.26531601 </i>
    <i name="e_0_energy">    -75.26531601 </i>
   </energy>
  </scstep>
  <scstep>
   <time name="dav">    0.20    0.20</time>
   <time name="total">    0.49    0.50</time>
   <energy>
    <i name="e_fr_energy">    -75.26532185 </i>
    <i name="e_wo_entrp">    -75.26532185 </i>
    <i name="e_0_energy">    -75.26532185 </i>
   </energy>
  </scstep>
  <scstep>
   <time name="dav">    0.20    0.20</time>
   <time name="total">    0.49    0.50</time>
   <energy>
    <i name="e_fr_energy">    -75.26532403 </i>
    <i name="e_wo_entrp">    -75.26532403 </i>
    <i name="e_0_energy">    -75.26532403 </i>
   </energy>
  </scstep>
  <scstep>
   <time name="dav">    0.15    0.15</time>
   <time name="total">    0.41    0.42</time>
   <energy>
    <i name="alphaZ">      3.48814018 </i>
    <i name="ewald">   1155.34121781 </i>
    <i name="hartreedc">  -1935.32245437 </i>
    <i name="XCdc">     98.75078589 </i>
    <i name="pawpsdc">   2614.51498701 </i>
    <i name="pawaedc">  -2618.82577501 </i>
    <i name="eentropy">     -0.00000000 </i>
    <i name="bandstr">   -351.04188308 </i>
    <i name="atom">    957.82965714 </i>
    <i name="e_fr_energy">    -75.26532444 </i>
    <i name="e_wo_entrp">    -75.26532444 </i>
    <i name="e_0_energy">    -75.26532444 </i>
   </energy>
  </scstep>
  <structure>
   <crystal>
    <varray name="basis" >
     <v>      10.58354422       0.00000000       0.00000000 </v>
     <v>       0.00000000      10.58354422       0.00000000 </v>
     <v>       0.00000000       0.00000000      10.58354422 </v>
    </varray>
    <i name="volume">   1185.47769178 </i>
    <varray name="rec_basis" >
     <v>       0.09448631       0.00000000       0.00000000 </v>
     <v>       0.00000000       0.09448631       0.00000000 </v>
     <v>       0.00000000       0.00000000       0.09448631 </v>
    </varray>
   </crystal>
   <varray name="positions" >
    <v>       0.49545435       0.63102830       0.49908045 </v>
    <v>       0.38945905       0.56508530       0.50290075 </v>
    <v>       0.38883800       0.43729230       0.49789410 </v>
    <v>       0.49990730       0.36569370       0.50242340 </v>
    <v>       0.60942705       0.43489950       0.50471135 </v>
    <v>       0.61925615       0.56727710       0.49717790 </v>
    <v>       0.49565365       0.72672080       0.48793865 </v>
    <v>       0.29938925       0.60922595       0.51730375 </v>
    <v>       0.29974960       0.38936720       0.49497200 </v>
    <v>       0.49048880       0.26319190       0.48399895 </v>
    <v>       0.70169970       0.39202420       0.51829360 </v>
    <v>       0.71067705       0.61819365       0.49330515 </v>
   </varray>
  </structure>
  <varray name="forces" >
   <v>       5.35427220      -1.04949032      -0.36876379 </v>
   <v>      -2.41504462      -0.19551883       0.44773793 </v>
   <v>       0.17298507      -2.35817681       0.27434053 </v>
   <v>      -1.57679747       0.08492969      -0.94576531 </v>
   <v>       2.88719698       0.73130048       0.26787924 </v>
   <v>      -3.09446497       0.19226583       0.24398067 </v>
   <v>      -0.12146668       2.99565854       0.00960633 </v>
   <v>      -0.57797659       0.62786793      -0.28342939 </v>
   <v>      -0.65407195      -0.40722062      -0.02328834 </v>
   <v>       0.53347682       0.42393970       0.56640223 </v>
   <v>       0.12578382      -0.70832828      -0.26888512 </v>
   <v>      -0.63389260      -0.33722731       0.08018501 </v>
  </varray>
  <varray name="stress" >
   <v>       4.08994474       1.65464101      -0.01466106 </v>
   <v>       1.65464101       9.44210136      -0.46023450 </v>
   <v>      -0.01466106      -0.46023449      -0.46810662 </v>
  </varray>
  <energy>
   <i name="e_fr_energy">    -75.26532444 </i>
   <i name="e_wo_entrp">    -75.26532444 </i>
   <i name="e_0_energy">    -75.26532444 </i>
  </energy>
  <time name="totalsc">   15.95   16.14</time>
  <eigenvalues>
   <array>
    <dimension dim="1">band</dimension>
    <dimension dim="2">kpoint</dimension>
    <dimension dim="3">spin</dimension>
    <field>eigene</field>
    <field>occ</field>
    <set>
     <set comment="spin 1">
      <set comment="kpoint 1">
       <r>  -20.9512    1.0000 </r>
       <r>  -18.2599    1.0000 </r>
       <r>  -17.9141    1.0000 </r>
       <r>  -14.6663    1.0000 </r>
       <r>  -14.2255    1.0000 </r>
       <r>  -12.5646    1.0000 </r>
       <r>  -10.8376    1.0000 </r>
       <r>  -10.6084    1.0000 </r>
       <r>   -9.7632    1.0000 </r>
       <r>   -9.7097    1.0000 </r>
       <r>   -8.8252    1.0000 </r>
       <r>   -8.1787    1.0000 </r>
       <r>   -7.1621    1.0000 </r>
       <r>   -6.0955    1.0000 </r>
       <r>   -5.7589    1.0000 </r>
       <r>   -1.0538    0.0000 </r>
       <r>   -0.6185    0.0000 </r>
       <r>   -0.3861    0.0000 </r>
       <r>    0.7204    0.0000 </r>
       <r>    0.8495    0.0000 </r>
       <r>    0.8851    0.0000 </r>
       <r>    0.9045    0.0000 </r>
       <r>    0.9858    0.0000 </r>
       <r>    1.4486    0.0000 </r>
      </set>
     </set>
    </set>
   </array>
  </eigenvalues>
  <separator name="orbital magnetization" >
   <v name="MAGDIPOLOUT">      0.00000000      0.00000000      0.00000000</v>
  </separator>
  <dos>
   <i name="efermi">     -5.47525708 </i>
   <total>
    <array>
     <dimension dim="1">gridpoints</dimension>
     <dimension dim="2">spin</dimension>
     <field>energy</field>
     <field>total</field>
     <field>integrated</field>
     <set>
      <set comment="spin 1">
       <r>   -22.0712     0.0000     0.0000 </r>
       <r>   -21.9890     0.0000     0.0000 </r>
       <r>   -21.9069     0.0000     0.0000 </r>
       <r>   -21.8248     0.0000     0.0000 </r>
       <r>   -21.7426     0.0000     0.0000 </r>
       <r>   -21.6605     0.0000     0.0000 </r>
       <r>   -21.5784     0.0000     0.0000 </r>
       <r>   -21.4962     0.0000     0.0000 </r>
       <r>   -21.4141     0.0000     0.0000 </r>
       <r>   -21.3320     0.0000     0.0000 </r>
       <r>   -21.2498     0.0000     0.0000 </r>
       <r>   -21.1677     0.0000     0.0000 </r>
       <r>   -21.0856     0.0018     0.0001 </r>
       <r>   -21.0034     1.6946     0.1393 </r>
       <r>   -20.9213    17.8057     1.6017 </r>
       <r>   -20.8392     4.8302     1.9985 </r>
       <r>   -20.7570     0.0187     2.0000 </r>
       <r>   -20.6749     0.0000     2.0000 </r>
       <r>   -20.5928     0.0000     2.0000 </r>
       <r>   -20.5107     0.0000     2.0000 </r>
       <r>   -20.4285     0.0000     2.0000 </r>
       <r>   -20.3464     0.0000     2.0000 </r>
       <r>   -20.2643     0.0000     2.0000 </r>
       <r>   -20.1821     0.0000     2.0000 </r>
       <r>   -20.1000     0.0000     2.0000 </r>
       <r>   -20.0179     0.0000     2.0000 </r>
       <r>   -19.9357     0.0000     2.0000 </r>
       <r>   -19.8536     0.0000     2.0000 </r>
       <r>   -19.7715     0.0000     2.0000 </r>
       <r>   -19.6893     0.0000     2.0000 </r>
       <r>   -19.6072     0.0000     2.0000 </r>
       <r>   -19.5251     0.0000     2.0000 </r>
       <r>   -19.4429     0.0000     2.0000 </r>
       <r>   -19.3608     0.0000     2.0000 </r>
       <r>   -19.2787     0.0000     2.0000 </r>
       <r>   -19.1965     0.0000     2.0000 </r>
       <r>   -19.1144     0.0000     2.0000 </r>
       <r>   -19.0323     0.0000     2.0000 </r>
       <r>   -18.9501     0.0000     2.0000 </r>
       <r>   -18.8680     0.0000     2.0000 </r>
       <r>   -18.7859     0.0000     2.0000 </r>
       <r>   -18.7037     0.0000     2.0000 </r>
       <r>   -18.6216     0.0000     2.0000 </r>
       <r>   -18.5395     0.0000     2.0000 </r>
       <r>   -18.4573     0.0000     2.0000 </r>
       <r>   -18.3752     0.0135     2.0011 </r>
       <r>   -18.2931     4.2302     2.3485 </r>
       <r>   -18.2109    18.0878     3.8341 </r>
       <r>   -18.1288     2.0168     3.9998 </r>
       <r>   -18.0467     0.0047     4.0002 </r>
       <r>   -17.9645     1.8652     4.1534 </r>
       <r>   -17.8824    17.9712     5.6294 </r>
       <r>   -17.8003     4.4967     5.9987 </r>
       <r>   -17.7181     0.0157     6.0000 </r>
       <r>   -17.6360     0.0000     6.0000 </r>
       <r>   -17.5539     0.0000     6.0000 </r>
       <r>   -17.4717     0.0000     6.0000 </r>
       <r>   -17.3896     0.0000     6.0000 </r>
       <r>   -17.3075     0.0000     6.0000 </r>
       <r>   -17.2253     0.0000     6.0000 </r>
       <r>   -17.1432     0.0000     6.0000 </r>
       <r>   -17.0611     0.0000     6.0000 </r>
       <r>   -16.9790     0.0000     6.0000 </r>
       <r>   -16.8968     0.0000     6.0000 </r>
       <r>   -16.8147     0.0000     6.0000 </r>
       <r>   -16.7326     0.0000     6.0000 </r>
       <r>   -16.6504     0.0000     6.0000 </r>
       <r>   -16.5683     0.0000     6.0000 </r>
       <r>   -16.4862     0.0000     6.0000 </r>
       <r>   -16.4040     0.0000     6.0000 </r>
       <r>   -16.3219     0.0000     6.0000 </r>
       <r>   -16.2398     0.0000     6.0000 </r>
       <r>   -16.1576     0.0000     6.0000 </r>
       <r>   -16.0755     0.0000     6.0000 </r>
       <r>   -15.9934     0.0000     6.0000 </r>
       <r>   -15.9112     0.0000     6.0000 </r>
       <r>   -15.8291     0.0000     6.0000 </r>
       <r>   -15.7470     0.0000     6.0000 </r>
       <r>   -15.6648     0.0000     6.0000 </r>
       <r>   -15.5827     0.0000     6.0000 </r>
       <r>   -15.5006     0.0000     6.0000 </r>
       <r>   -15.4184     0.0000     6.0000 </r>
       <r>   -15.3363     0.0000     6.0000 </r>
       <r>   -15.2542     0.0000     6.0000 </r>
       <r>   -15.1720     0.0000     6.0000 </r>
       <r>   -15.0899     0.0000     6.0000 </r>
       <r>   -15.0078     0.0000     6.0000 </r>
       <r>   -14.9256     0.0000     6.0000 </r>
       <r>   -14.8435     0.0000     6.0000 </r>
       <r>   -14.7614     0.0876     6.0072 </r>
       <r>   -14.6792     8.6227     6.7154 </r>
       <r>   -14.5971    15.0296     7.9498 </r>
       <r>   -14.5150     0.6107     8.0000 </r>
       <r>   -14.4328     0.0002     8.0000 </r>
       <r>   -14.3507     0.0048     8.0004 </r>
       <r>   -14.2686     2.7087     8.2229 </r>
       <r>   -14.1864    18.3556     9.7305 </r>
       <r>   -14.1043     3.2743     9.9994 </r>
       <r>   -14.0222     0.0074    10.0000 </r>
       <r>   -13.9400     0.0000    10.0000 </r>
       <r>   -13.8579     0.0000    10.0000 </r>
       <r>   -13.7758     0.0000    10.0000 </r>
       <r>   -13.6936     0.0000    10.0000 </r>
       <r>   -13.6115     0.0000    10.0000 </r>
       <r>   -13.5294     0.0000    10.0000 </r>
       <r>   -13.4473     0.0000    10.0000 </r>
       <r>   -13.3651     0.0000    10.0000 </r>
       <r>   -13.2830     0.0000    10.0000 </r>
       <r>   -13.2009     0.0000    10.0000 </r>
       <r>   -13.1187     0.0000    10.0000 </r>
       <r>   -13.0366     0.0000    10.0000 </r>
       <r>   -12.9545     0.0000    10.0000 </r>
       <r>   -12.8723     0.0000    10.0000 </r>
       <r>   -12.7902     0.0000    10.0000 </r>
       <r>   -12.7081     0.0006    10.0000 </r>
       <r>   -12.6259     1.0079    10.0828 </r>
       <r>   -12.5438    16.5709    11.4438 </r>
       <r>   -12.4617     6.7278    11.9964 </r>
       <r>   -12.3795     0.0438    12.0000 </r>
       <r>   -12.2974     0.0000    12.0000 </r>
       <r>   -12.2153     0.0000    12.0000 </r>
       <r>   -12.1331     0.0000    12.0000 </r>
       <r>   -12.0510     0.0000    12.0000 </r>
       <r>   -11.9689     0.0000    12.0000 </r>
       <r>   -11.8867     0.0000    12.0000 </r>
       <r>   -11.8046     0.0000    12.0000 </r>
       <r>   -11.7225     0.0000    12.0000 </r>
       <r>   -11.6403     0.0000    12.0000 </r>
       <r>   -11.5582     0.0000    12.0000 </r>
       <r>   -11.4761     0.0000    12.0000 </r>
       <r>   -11.3939     0.0000    12.0000 </r>
       <r>   -11.3118     0.0000    12.0000 </r>
       <r>   -11.2297     0.0000    12.0000 </r>
       <r>   -11.1475     0.0000    12.0000 </r>
       <r>   -11.0654     0.0000    12.0000 </r>
       <r>   -10.9833     0.0005    12.0000 </r>
       <r>   -10.9011     0.8784    12.0722 </r>
       <r>   -10.8190    16.1726    13.4005 </r>
       <r>   -10.7369     7.2492    13.9959 </r>
       <r>   -10.6547     2.3656    14.1902 </r>
       <r>   -10.5726    18.2481    15.6889 </r>
       <r>   -10.4905     3.7770    15.9992 </r>
       <r>   -10.4083     0.0103    16.0000 </r>
       <r>   -10.3262     0.0000    16.0000 </r>
       <r>   -10.2441     0.0000    16.0000 </r>
       <r>   -10.1619     0.0000    16.0000 </r>
       <r>   -10.0798     0.0000    16.0000 </r>
       <r>    -9.9977     0.0000    16.0000 </r>
       <r>    -9.9155     0.0002    16.0000 </r>
       <r>    -9.8334     0.5792    16.0476 </r>
       <r>    -9.7513    17.7275    17.5036 </r>
       <r>    -9.6692    27.2330    19.7403 </r>
       <r>    -9.5870     3.1555    19.9995 </r>
       <r>    -9.5049     0.0064    20.0000 </r>
       <r>    -9.4228     0.0000    20.0000 </r>
       <r>    -9.3406     0.0000    20.0000 </r>
       <r>    -9.2585     0.0000    20.0000 </r>
       <r>    -9.1764     0.0000    20.0000 </r>
       <r>    -9.0942     0.0000    20.0000 </r>
       <r>    -9.0121     0.0000    20.0000 </r>
       <r>    -8.9300     0.0371    20.0030 </r>
       <r>    -8.8478     6.3236    20.5224 </r>
       <r>    -8.7657    16.8665    21.9077 </r>
       <r>    -8.6836     1.1229    21.9999 </r>
       <r>    -8.6014     0.0008    22.0000 </r>
       <r>    -8.5193     0.0000    22.0000 </r>
       <r>    -8.4372     0.0000    22.0000 </r>
       <r>    -8.3550     0.0000    22.0000 </r>
       <r>    -8.2729     0.0941    22.0077 </r>
       <r>    -8.1908     8.8340    22.7333 </r>
       <r>    -8.1086    14.8451    23.9526 </r>
       <r>    -8.0265     0.5775    24.0000 </r>
       <r>    -7.9444     0.0002    24.0000 </r>
       <r>    -7.8622     0.0000    24.0000 </r>
       <r>    -7.7801     0.0000    24.0000 </r>
       <r>    -7.6980     0.0000    24.0000 </r>
       <r>    -7.6158     0.0000    24.0000 </r>
       <r>    -7.5337     0.0000    24.0000 </r>
       <r>    -7.4516     0.0000    24.0000 </r>
       <r>    -7.3694     0.0000    24.0000 </r>
       <r>    -7.2873     0.0049    24.0004 </r>
       <r>    -7.2052     2.7146    24.2234 </r>
       <r>    -7.1230    18.3564    25.7310 </r>
       <r>    -7.0409     3.2675    25.9994 </r>
       <r>    -6.9588     0.0074    26.0000 </r>
       <r>    -6.8766     0.0000    26.0000 </r>
       <r>    -6.7945     0.0000    26.0000 </r>
       <r>    -6.7124     0.0000    26.0000 </r>
       <r>    -6.6302     0.0000    26.0000 </r>
       <r>    -6.5481     0.0000    26.0000 </r>
       <r>    -6.4660     0.0000    26.0000 </r>
       <r>    -6.3838     0.0000    26.0000 </r>
       <r>    -6.3017     0.0000    26.0000 </r>
       <r>    -6.2196     0.0055    26.0004 </r>
       <r>    -6.1375     2.8604    26.2354 </r>
       <r>    -6.0553    18.3709    27.7442 </r>
       <r>    -5.9732     3.1075    27.9995 </r>
       <r>    -5.8911     0.0088    28.0002 </r>
       <r>    -5.8089     1.9107    28.1571 </r>
       <r>    -5.7268    18.0090    29.6362 </r>
       <r>    -5.6447     4.4139    29.9988 </r>
       <r>    -5.5625     0.0150    30.0000 </r>
       <r>    -5.4804     0.0000    30.0000 </r>
       <r>    -5.3983     0.0000    30.0000 </r>
       <r>    -5.3161     0.0000    30.0000 </r>
       <r>    -5.2340     0.0000    30.0000 </r>
       <r>    -5.1519     0.0000    30.0000 </r>
       <r>    -5.0697     0.0000    30.0000 </r>
       <r>    -4.9876     0.0000    30.0000 </r>
       <r>    -4.9055     0.0000    30.0000 </r>
       <r>    -4.8233     0.0000    30.0000 </r>
       <r>    -4.7412     0.0000    30.0000 </r>
       <r>    -4.6591     0.0000    30.0000 </r>
       <r>    -4.5769     0.0000    30.0000 </r>
       <r>    -4.4948     0.0000    30.0000 </r>
       <r>    -4.4127     0.0000    30.0000 </r>
       <r>    -4.3305     0.0000    30.0000 </r>
       <r>    -4.2484     0.0000    30.0000 </r>
       <r>    -4.1663     0.0000    30.0000 </r>
       <r>    -4.0841     0.0000    30.0000 </r>
       <r>    -4.0020     0.0000    30.0000 </r>
       <r>    -3.9199     0.0000    30.0000 </r>
       <r>    -3.8377     0.0000    30.0000 </r>
       <r>    -3.7556     0.0000    30.0000 </r>
       <r>    -3.6735     0.0000    30.0000 </r>
       <r>    -3.5913     0.0000    30.0000 </r>
       <r>    -3.5092     0.0000    30.0000 </r>
       <r>    -3.4271     0.0000    30.0000 </r>
       <r>    -3.3449     0.0000    30.0000 </r>
       <r>    -3.2628     0.0000    30.0000 </r>
       <r>    -3.1807     0.0000    30.0000 </r>
       <r>    -3.0985     0.0000    30.0000 </r>
       <r>    -3.0164     0.0000    30.0000 </r>
       <r>    -2.9343     0.0000    30.0000 </r>
       <r>    -2.8521     0.0000    30.0000 </r>
       <r>    -2.7700     0.0000    30.0000 </r>
       <r>    -2.6879     0.0000    30.0000 </r>
       <r>    -2.6058     0.0000    30.0000 </r>
       <r>    -2.5236     0.0000    30.0000 </r>
       <r>    -2.4415     0.0000    30.0000 </r>
       <r>    -2.3594     0.0000    30.0000 </r>
       <r>    -2.2772     0.0000    30.0000 </r>
       <r>    -2.1951     0.0000    30.0000 </r>
       <r>    -2.1130     0.0000    30.0000 </r>
       <r>    -2.0308     0.0000    30.0000 </r>
       <r>    -1.9487     0.0000    30.0000 </r>
       <r>    -1.8666     0.0000    30.0000 </r>
       <r>    -1.7844     0.0000    30.0000 </r>
       <r>    -1.7023     0.0000    30.0000 </r>
       <r>    -1.6202     0.0000    30.0000 </r>
       <r>    -1.5380     0.0000    30.0000 </r>
       <r>    -1.4559     0.0000    30.0000 </r>
       <r>    -1.3738     0.0000    30.0000 </r>
       <r>    -1.2916     0.0000    30.0000 </r>
       <r>    -1.2095     0.0001    30.0000 </r>
       <r>    -1.1274     0.4564    30.0375 </r>
       <r>    -1.0452    14.0544    31.1918 </r>
       <r>    -0.9631     9.7146    31.9897 </r>
       <r>    -0.8810     0.1253    32.0000 </r>
       <r>    -0.7988     0.0000    32.0000 </r>
       <r>    -0.7167     0.0664    32.0055 </r>
       <r>    -0.6346     7.8311    32.6487 </r>
       <r>    -0.5524    15.7003    33.9382 </r>
       <r>    -0.4703     0.9617    34.0171 </r>
       <r>    -0.3882    11.3849    34.9522 </r>
       <r>    -0.3060    12.4695    35.9764 </r>
       <r>    -0.2239     0.2876    36.0000 </r>
       <r>    -0.1418     0.0001    36.0000 </r>
       <r>    -0.0596     0.0000    36.0000 </r>
       <r>     0.0225     0.0000    36.0000 </r>
       <r>     0.1046     0.0000    36.0000 </r>
       <r>     0.1868     0.0000    36.0000 </r>
       <r>     0.2689     0.0000    36.0000 </r>
       <r>     0.3510     0.0000    36.0000 </r>
       <r>     0.4332     0.0000    36.0000 </r>
       <r>     0.5153     0.0000    36.0000 </r>
       <r>     0.5974     0.0061    36.0005 </r>
       <r>     0.6796     3.0095    36.2477 </r>
       <r>     0.7617    18.5386    37.7703 </r>
       <r>     0.8438    17.4130    39.2005 </r>
       <r>     0.9260    49.5343    43.2689 </r>
       <r>     1.0081    26.7816    45.4685 </r>
       <r>     1.0902     6.4331    45.9969 </r>
       <r>     1.1723     0.0381    46.0000 </r>
       <r>     1.2545     0.0000    46.0000 </r>
       <r>     1.3366     0.0187    46.0015 </r>
       <r>     1.4187     4.8302    46.3983 </r>
       <r>     1.5009    17.8057    47.8607 </r>
       <r>     1.5830     1.6946    47.9999 </r>
       <r>     1.6651     0.0018    48.0000 </r>
       <r>     1.7473     0.0000    48.0000 </r>
       <r>     1.8294     0.0000    48.0000 </r>
       <r>     1.9115     0.0000    48.0000 </r>
       <r>     1.9937     0.0000    48.0000 </r>
       <r>     2.0758     0.0000    48.0000 </r>
       <r>     2.1579     0.0000    48.0000 </r>
       <r>     2.2401     0.0000    48.0000 </r>
       <r>     2.3222     0.0000    48.0000 </r>
       <r>     2.4043     0.0000    48.0000 </r>
       <r>     2.4865     0.0000    48.0000 </r>
       <r>     2.5686     0.0000    48.0000 </r>
      </set>
     </set>
    </array>
   </total>
  </dos>
 </calculation>
 <structure name="finalpos" >
  <crystal>
   <varray name="basis" >
    <v>      10.58354422       0.00000000       0.00000000 </v>
    <v>       0.00000000      10.58354422       0.00000000 </v>
    <v>       0.00000000       0.00000000      10.58354422 </v>
   </varray>
   <i name="volume">   1185.47769178 </i>
   <varray name="rec_basis" >
    <v>       0.09448631       0.00000000       0.00000000 </v>
    <v>       0.00000000       0.09448631       0.00000000 </v>
    <v>       0.00000000       0.00000000       0.09448631 </v>
   </varray>
  </crystal>
  <varray name="positions" >
   <v>       0.49545435       0.63102830       0.49908045 </v>
   <v>       0.38945905       0.56508530       0.50290075 </v>
   <v>       0.38883800       0.43729230       0.49789410 </v>
   <v>       0.49990730       0.36569370       0.50242340 </v>
   <v>       0.60942705       0.43489950       0.50471135 </v>
   <v>       0.61925615       0.56727710       0.49717790 </v>
   <v>       0.49565365       0.72672080       0.48793865 </v>
   <v>       0.29938925       0.60922595       0.51730375 </v>
   <v>       0.29974960       0.38936720       0.49497200 </v>
   <v>       0.49048880       0.26319190       0.48399895 </v>
   <v>       0.70169970       0.39202420       0.51829360 </v>
   <v>       0.71067705       0.61819365       0.49330515 </v>
  </varray>
 </structure>
</modeling>
