<?xml version="1.0" encoding="ISO-8859-1"?>
<modeling>
 <generator>
  <i name="program" type="string">vasp </i>
  <i name="version" type="string">6.2.0  </i>
  <i name="subversion" type="string">18Jan21 (build Mar 25 2021 14:28:09) complex                          parallel </i>
  <i name="platform" type="string">LinuxGNU </i>
  <i name="date" type="string">2021 12 20 </i>
  <i name="time" type="string">09:56:06 </i>
 </generator>
 <incar>
  <i type="string" name="SYSTEM">benzene</i>
  <i type="int" name="ISTART">     0</i>
  <i type="string" name="PREC">Accurate</i>
  <i type="string" name="ALGO">Normal</i>
  <i type="int" name="NELM">   200</i>
  <i type="int" name="IBRION">    -1</i>
  <i name="EDIFF">      0.00000100</i>
  <i type="int" name="NSW">     0</i>
  <i name="ENCUT">    600.00000000</i>
  <i type="logical" name="LREAL"> F  </i>
  <i type="int" name="ISMEAR">     0</i>
  <i name="SIGMA">      0.05000000</i>
  <i type="logical" name="LWAVE"> F  </i>
  <i type="logical" name="LCHARG"> T  </i>
  <i type="string" name="GGA">PE</i>
 </incar>
 <primitive_cell>
  <structure name="primitive_cell" >
   <crystal>
    <varray name="basis" >
     <v>      10.58354422       0.00000000       0.00000000 </v>
     <v>       0.00000000      10.58354422       0.00000000 </v>
     <v>       0.00000000       0.00000000      10.58354422 </v>
    </varray>
    <i name="volume">   1185.47769178 </i>
    <varray name="rec_basis" >
     <v>       0.09448631       0.00000000       0.00000000 </v>
     <v>       0.00000000       0.09448631       0.00000000 </v>
     <v>       0.00000000       0.00000000       0.09448631 </v>
    </varray>
   </crystal>
   <varray name="positions" >
    <v>       0.49816865       0.62795260       0.50093910 </v>
    <v>       0.39152890       0.55920825       0.51064840 </v>
    <v>       0.38357985       0.43214965       0.49971750 </v>
    <v>       0.50278545       0.37717075       0.50140220 </v>
    <v>       0.62329820       0.43734490       0.50730795 </v>
    <v>       0.62175655       0.56847590       0.49495360 </v>
    <v>       0.49535620       0.73884570       0.49065840 </v>
    <v>       0.28709740       0.59941525       0.51083145 </v>
    <v>       0.28977385       0.39310020       0.48212510 </v>
    <v>       0.49117660       0.26897155       0.50397105 </v>
    <v>       0.69860650       0.37171650       0.49907235 </v>
    <v>       0.71687185       0.62564865       0.49837285 </v>
   </varray>
  </structure>
  <varray name="primitive_index" >
   <v type="int" >        1 </v>
   <v type="int" >        2 </v>
   <v type="int" >        3 </v>
   <v type="int" >        4 </v>
   <v type="int" >        5 </v>
   <v type="int" >        6 </v>
   <v type="int" >        7 </v>
   <v type="int" >        8 </v>
   <v type="int" >        9 </v>
   <v type="int" >       10 </v>
   <v type="int" >       11 </v>
   <v type="int" >       12 </v>
  </varray>
 </primitive_cell>
 <kpoints>
  <generation param="Gamma">
   <v type="int" name="divisions">       1        1        1 </v>
   <v name="usershift">      0.00000000       0.00000000       0.00000000 </v>
   <v name="genvec1">      1.00000000       0.00000000       0.00000000 </v>
   <v name="genvec2">      0.00000000       1.00000000       0.00000000 </v>
   <v name="genvec3">      0.00000000       0.00000000       1.00000000 </v>
   <v name="shift">      0.00000000       0.00000000       0.00000000 </v>
  </generation>
  <varray name="kpointlist" >
   <v>       0.00000000       0.00000000       0.00000000 </v>
  </varray>
  <varray name="weights" >
   <v>       1.00000000 </v>
  </varray>
 </kpoints>
 <parameters>
  <separator name="general" >
   <i type="string" name="SYSTEM">benzene</i>
   <i type="logical" name="LCOMPAT"> F  </i>
  </separator>
  <separator name="electronic" >
   <i type="string" name="PREC">accura</i>
   <i name="ENMAX">    600.00000000</i>
   <i name="ENAUG">    644.87300000</i>
   <i name="EDIFF">      0.00000100</i>
   <i type="int" name="IALGO">    38</i>
   <i type="int" name="IWAVPR">    10</i>
   <i type="int" name="NBANDS">    24</i>
   <i type="int" name="NBANDSLOW">    -1</i>
   <i type="int" name="NBANDSHIGH">    -1</i>
   <i name="NELECT">     30.00000000</i>
   <i type="int" name="TURBO">     0</i>
   <i type="int" name="IRESTART">     0</i>
   <i type="int" name="NREBOOT">     0</i>
   <i type="int" name="NMIN">     0</i>
   <i name="EREF">      0.00000000</i>
   <separator name="electronic smearing" >
    <i type="int" name="ISMEAR">     0</i>
    <i name="SIGMA">      0.05000000</i>
    <i name="KSPACING">      0.50000000</i>
    <i type="logical" name="KGAMMA"> T  </i>
    <i type="logical" name="KBLOWUP"> T  </i>
   </separator>
   <separator name="electronic projectors" >
    <i type="logical" name="LREAL"> F  </i>
    <v name="ROPT">      0.00000000      0.00000000</v>
    <i type="int" name="LMAXPAW">  -100</i>
    <i type="int" name="LMAXMIX">     2</i>
    <i type="logical" name="NLSPLINE"> F  </i>
   </separator>
   <separator name="electronic startup" >
    <i type="int" name="ISTART">     0</i>
    <i type="int" name="ICHARG">     2</i>
    <i type="int" name="INIWAV">     1</i>
   </separator>
   <separator name="electronic spin" >
    <i type="int" name="ISPIN">     1</i>
    <i type="logical" name="LNONCOLLINEAR"> F  </i>
    <v name="MAGMOM">      1.00000000      1.00000000      1.00000000      1.00000000      1.00000000      1.00000000      1.00000000      1.00000000      1.00000000      1.00000000      1.00000000      1.00000000</v>
    <i name="NUPDOWN">     -1.00000000</i>
    <i type="logical" name="LSORBIT"> F  </i>
    <v name="SAXIS">      0.00000000      0.00000000      1.00000000</v>
    <i type="logical" name="LSPIRAL"> F  </i>
    <v name="QSPIRAL">      0.00000000      0.00000000      0.00000000</v>
    <i type="logical" name="LZEROZ"> F  </i>
   </separator>
   <separator name="electronic exchange-correlation" >
    <i type="logical" name="LASPH"> F  </i>
    <i type="logical" name="LMETAGGA"> F  </i>
   </separator>
   <separator name="electronic convergence" >
    <i type="int" name="NELM">   200</i>
    <i type="int" name="NELMDL">    -5</i>
    <i type="int" name="NELMIN">     2</i>
    <i name="ENINI">    600.00000000</i>
    <separator name="electronic convergence detail" >
     <i type="logical" name="LDIAG"> T  </i>
     <i type="logical" name="LSUBROT"> F  </i>
     <i name="WEIMIN">      0.00000000</i>
     <i name="EBREAK">      0.00000001</i>
     <i name="DEPER">      0.30000000</i>
     <i type="int" name="NRMM">     4</i>
     <i name="TIME">      0.40000000</i>
    </separator>
   </separator>
   <separator name="electronic mixer" >
    <i name="AMIX">      0.40000000</i>
    <i name="BMIX">      1.00000000</i>
    <i name="AMIN">      0.10000000</i>
    <i name="AMIX_MAG">      1.60000000</i>
    <i name="BMIX_MAG">      1.00000000</i>
    <separator name="electronic mixer details" >
     <i type="int" name="IMIX">     4</i>
     <i type="logical" name="MIXFIRST"> F  </i>
     <i type="int" name="MAXMIX">   -45</i>
     <i name="WC">    100.00000000</i>
     <i type="int" name="INIMIX">     1</i>
     <i type="int" name="MIXPRE">     1</i>
     <i type="int" name="MREMOVE">     5</i>
    </separator>
   </separator>
   <separator name="electronic dipolcorrection" >
    <i type="logical" name="LDIPOL"> F  </i>
    <i type="logical" name="LMONO"> F  </i>
    <i type="int" name="IDIPOL">     0</i>
    <i name="EPSILON">      1.00000000</i>
    <v name="DIPOL">   -100.00000000   -100.00000000   -100.00000000</v>
    <i name="EFIELD">      0.00000000</i>
   </separator>
  </separator>
  <separator name="grids" >
   <i type="int" name="NGX">    90</i>
   <i type="int" name="NGY">    90</i>
   <i type="int" name="NGZ">    90</i>
   <i type="int" name="NGXF">   180</i>
   <i type="int" name="NGYF">   180</i>
   <i type="int" name="NGZF">   180</i>
   <i type="logical" name="ADDGRID"> F  </i>
  </separator>
  <separator name="ionic" >
   <i type="int" name="NSW">     0</i>
   <i type="int" name="IBRION">    -1</i>
   <i type="int" name="MDALGO">     0</i>
   <i type="int" name="ISIF">     2</i>
   <i name="PSTRESS">      0.00000000</i>
   <i name="EDIFFG">      0.00001000</i>
   <i type="int" name="NFREE">     0</i>
   <i name="POTIM">      0.50000000</i>
   <i name="SMASS">     -3.00000000</i>
   <i name="SCALEE">      1.00000000</i>
  </separator>
  <separator name="ionic md" >
   <i name="TEBEG">      0.00010000</i>
   <i name="TEEND">      0.00010000</i>
   <i type="int" name="NBLOCK">     1</i>
   <i type="int" name="KBLOCK">     1</i>
   <i type="int" name="NPACO">   256</i>
   <i name="APACO">     16.00000000</i>
  </separator>
  <separator name="symmetry" >
   <i type="int" name="ISYM">     2</i>
   <i name="SYMPREC">      0.00001000</i>
  </separator>
  <separator name="dos" >
   <i type="int" name="LORBIT">     0</i>
   <v name="RWIGS">     -1.00000000     -1.00000000</v>
   <i type="int" name="NEDOS">   301</i>
   <i name="EMIN">     10.00000000</i>
   <i name="EMAX">    -10.00000000</i>
   <i name="EFERMI">      0.00000000</i>
  </separator>
  <separator name="writing" >
   <i type="int" name="NWRITE">     2</i>
   <i type="logical" name="LWAVE"> F  </i>
   <i type="logical" name="LDOWNSAMPLE"> F  </i>
   <i type="logical" name="LCHARG"> T  </i>
   <i type="logical" name="LPARD"> F  </i>
   <i type="logical" name="LVTOT"> F  </i>
   <i type="logical" name="LVHAR"> F  </i>
   <i type="logical" name="LELF"> F  </i>
   <i type="logical" name="LOPTICS"> F  </i>
   <v name="STM">      0.00000000      0.00000000      0.00000000      0.00000000      0.00000000      0.00000000      0.00000000</v>
  </separator>
  <separator name="performance" >
   <i type="int" name="NPAR">     4</i>
   <i type="int" name="NSIM">     4</i>
   <i type="int" name="NBLK">    -1</i>
   <i type="logical" name="LPLANE"> T  </i>
   <i type="logical" name="LSCALAPACK"> T  </i>
   <i type="logical" name="LSCAAWARE"> F  </i>
   <i type="logical" name="LSCALU"> F  </i>
   <i type="logical" name="LASYNC"> F  </i>
   <i type="logical" name="LORBITALREAL"> F  </i>
  </separator>
  <separator name="miscellaneous" >
   <i type="int" name="IDIOT">     3</i>
   <i type="int" name="PHON_NSTRUCT">    -1</i>
   <i type="logical" name="LMUSIC"> F  </i>
   <v name="POMASS">     12.01100000      1.00000000</v>
   <v name="DARWINR">      0.00000000      0.00000000</v>
   <v name="DARWINV">      1.00000000      1.00000000</v>
   <i type="logical" name="LCORR"> T  </i>
  </separator>
  <i type="logical" name="GGA_COMPAT"> T  </i>
  <i type="logical" name="LBERRY"> F  </i>
  <i type="int" name="ICORELEVEL">     0</i>
  <i type="logical" name="LDAU"> F  </i>
  <i type="int" name="I_CONSTRAINED_M">     0</i>
  <separator name="electronic exchange-correlation" >
   <i type="string" name="GGA">PE</i>
   <i type="int" name="VOSKOWN">     0</i>
   <i type="logical" name="LHFCALC"> F  </i>
   <i type="string" name="PRECFOCK"></i>
   <i type="logical" name="LSYMGRAD"> F  </i>
   <i type="logical" name="LHFONE"> F  </i>
   <i type="logical" name="LRHFCALC"> F  </i>
   <i type="logical" name="LTHOMAS"> F  </i>
   <i type="logical" name="LMODELHF"> F  </i>
   <i type="logical" name="LFOCKACE"> F  </i>
   <i name="ENCUT4O">     -1.00000000</i>
   <i type="int" name="EXXOEP">     0</i>
   <i type="int" name="FOURORBIT">     0</i>
   <i name="AEXX">      0.00000000</i>
   <i name="HFALPHA">      0.00000000</i>
   <i name="MCALPHA">      0.00000000</i>
   <i name="ALDAX">      1.00000000</i>
   <i name="AGGAX">      1.00000000</i>
   <i name="ALDAC">      1.00000000</i>
   <i name="AGGAC">      1.00000000</i>
   <i type="int" name="NKREDX">     1</i>
   <i type="int" name="NKREDY">     1</i>
   <i type="int" name="NKREDZ">     1</i>
   <i type="logical" name="SHIFTRED"> F  </i>
   <i type="logical" name="ODDONLY"> F  </i>
   <i type="logical" name="EVENONLY"> F  </i>
   <i type="int" name="LMAXFOCK">     0</i>
   <i type="int" name="NMAXFOCKAE">     0</i>
   <i type="logical" name="LFOCKAEDFT"> F  </i>
   <i name="HFSCREEN">      0.00000000</i>
   <i name="HFSCREENC">      0.00000000</i>
   <i type="int" name="NBANDSGWLOW">     0</i>
  </separator>
  <separator name="vdW DFT" >
   <i type="logical" name="LUSE_VDW"> F  </i>
   <i name="Zab_VDW">     -0.84910000</i>
   <i name="PARAM1">      0.12340000</i>
   <i name="PARAM2">      1.00000000</i>
   <i name="PARAM3">      0.00000000</i>
  </separator>
  <separator name="model GW" >
   <i type="int" name="MODEL_GW">     0</i>
   <i name="MODEL_EPS0">     59.27388459</i>
   <i name="MODEL_ALPHA">      1.00000000</i>
  </separator>
  <separator name="linear response parameters" >
   <i type="logical" name="LEPSILON"> F  </i>
   <i type="logical" name="LRPA"> F  </i>
   <i type="logical" name="LNABLA"> F  </i>
   <i type="logical" name="LVEL"> F  </i>
   <i type="int" name="KINTER">     0</i>
   <i name="CSHIFT">      0.10000000</i>
   <i name="OMEGAMAX">     -1.00000000</i>
   <i name="DEG_THRESHOLD">      0.00200000</i>
   <i name="RTIME">     -0.10000000</i>
   <i name="WPLASMAI">      0.00000000</i>
   <v name="DFIELD">      0.00000000      0.00000000      0.00000000</v>
   <v name="WPLASMA">      0.00000000      0.00000000      0.00000000      0.00000000      0.00000000      0.00000000      0.00000000      0.00000000      0.00000000</v>
  </separator>
  <separator name="orbital magnetization" >
   <i type="logical" name="NUCIND"> F  </i>
   <v name="MAGPOS">      0.00000000      0.00000000      0.00000000</v>
   <i type="logical" name="LNICSALL"> T  </i>
   <i type="logical" name="ORBITALMAG"> F  </i>
   <i type="logical" name="LMAGBLOCH"> F  </i>
   <i type="logical" name="LCHIMAG"> F  </i>
   <i type="logical" name="LGAUGE"> T  </i>
   <i type="int" name="MAGATOM">     0</i>
   <v name="MAGDIPOL">      0.00000000      0.00000000      0.00000000</v>
   <v name="AVECCONST">      0.00000000      0.00000000      0.00000000</v>
  </separator>
  <separator name="response functions" >
   <i type="logical" name="LFINITE_TEMPERATURE"> F  </i>
   <i type="logical" name="LADDER"> F  </i>
   <i type="logical" name="LRPAFORCE"> F  </i>
   <i type="logical" name="LFXC"> F  </i>
   <i type="logical" name="LHARTREE"> T  </i>
   <i type="int" name="IBSE">     0</i>
   <v type="int" name="KPOINT">    -1     0     0     0</v>
   <i type="logical" name="LTCTC"> F  </i>
   <i type="logical" name="LTCTE"> F  </i>
   <i type="logical" name="LTETE"> F  </i>
   <i type="logical" name="LTRIPLET"> F  </i>
   <i type="logical" name="LFXCEPS"> F  </i>
   <i type="logical" name="LFXHEG"> F  </i>
   <i type="int" name="NATURALO">     2</i>
   <i type="logical" name="LHOLEGF"> F  </i>
   <i type="logical" name="L2ORDER"> F  </i>
   <i type="logical" name="LDMP1"> F  </i>
   <i type="logical" name="LMP2LT"> F  </i>
   <i type="logical" name="LSMP2LT"> F  </i>
   <i type="logical" name="LGWLF"> F  </i>
   <i name="ENCUTGW">     -2.00000000</i>
   <i name="ENCUTGWSOFT">     -2.00000000</i>
   <i name="ENCUTLF">     -1.00000000</i>
   <i type="logical" name="LESF_SPLINES"> F  </i>
   <i type="int" name="LMAXMP2">    -1</i>
   <i name="SCISSOR">      0.00000000</i>
   <i type="int" name="NOMEGA">     0</i>
   <i type="int" name="NOMEGAR">     0</i>
   <i type="int" name="NBANDSGW">    -1</i>
   <i type="int" name="NBANDSO">    -1</i>
   <i type="int" name="NBANDSV">    -1</i>
   <i type="int" name="NELM">   200</i>
   <i type="int" name="NELMHF">     1</i>
   <i type="int" name="DIM">     3</i>
   <i type="int" name="IESPILON">     4</i>
   <i type="int" name="ANTIRES">     0</i>
   <i name="OMEGAMAX">    -30.00000000</i>
   <i name="OMEGAMIN">    -30.00000000</i>
   <i name="OMEGATL">   -200.00000000</i>
   <i type="int" name="OMEGAGRID">     0</i>
   <i name="CSHIFT">     -0.10000000</i>
   <i type="logical" name="LSELFENERGY"> F  </i>
   <i type="logical" name="LSPECTRAL"> F  </i>
   <i type="logical" name="LSPECTRALGW"> F  </i>
   <i type="logical" name="LSINGLES"> F  </i>
   <i type="logical" name="LFERMIGW"> F  </i>
   <i type="logical" name="ODDONLYGW"> F  </i>
   <i type="logical" name="EVENONLYGW"> F  </i>
   <i type="int" name="NKREDLFX">     1</i>
   <i type="int" name="NKREDLFY">     1</i>
   <i type="int" name="NKREDLFZ">     1</i>
   <i type="int" name="MAXMEM">  2800</i>
   <i type="int" name="TELESCOPE">     0</i>
   <i type="int" name="NTAUPAR">    -1</i>
   <i type="int" name="NOMEGAPAR">    -1</i>
   <i name="DAMP_NEWTON">      0.80000001</i>
   <i name="LAMBDA">      1.00000000</i>
  </separator>
  <separator name="External order field" >
   <i name="OFIELD_KAPPA">      0.00000000</i>
   <v name="OFIELD_K">      0.00000000      0.00000000      0.00000000</v>
   <i name="OFIELD_Q6_NEAR">      0.00000000</i>
   <i name="OFIELD_Q6_FAR">      0.00000000</i>
   <i name="OFIELD_A">      0.00000000</i>
  </separator>
 </parameters>
 <atominfo>
  <atoms>      12 </atoms>
  <types>       2 </types>
  <array name="atoms" >
   <dimension dim="1">ion</dimension>
   <field type="string">element</field>
   <field type="int">atomtype</field>
   <set>
    <rc><c>C </c><c>   1</c></rc>
    <rc><c>C </c><c>   1</c></rc>
    <rc><c>C </c><c>   1</c></rc>
    <rc><c>C </c><c>   1</c></rc>
    <rc><c>C </c><c>   1</c></rc>
    <rc><c>C </c><c>   1</c></rc>
    <rc><c>H </c><c>   2</c></rc>
    <rc><c>H </c><c>   2</c></rc>
    <rc><c>H </c><c>   2</c></rc>
    <rc><c>H </c><c>   2</c></rc>
    <rc><c>H </c><c>   2</c></rc>
    <rc><c>H </c><c>   2</c></rc>
   </set>
  </array>
  <array name="atomtypes" >
   <dimension dim="1">type</dimension>
   <field type="int">atomspertype</field>
   <field type="string">element</field>
   <field>mass</field>
   <field>valence</field>
   <field type="string">pseudopotential</field>
   <set>
    <rc><c>   6</c><c>C </c><c>     12.01100000</c><c>      4.00000000</c><c>  PAW_PBE C 08Apr2002                   </c></rc>
    <rc><c>   6</c><c>H </c><c>      1.00000000</c><c>      1.00000000</c><c>  PAW_PBE H 15Jun2001                   </c></rc>
   </set>
  </array>
 </atominfo>
 <structure name="initialpos" >
  <crystal>
   <varray name="basis" >
    <v>      10.58354422       0.00000000       0.00000000 </v>
    <v>       0.00000000      10.58354422       0.00000000 </v>
    <v>       0.00000000       0.00000000      10.58354422 </v>
   </varray>
   <i name="volume">   1185.47769178 </i>
   <varray name="rec_basis" >
    <v>       0.09448631       0.00000000       0.00000000 </v>
    <v>       0.00000000       0.09448631       0.00000000 </v>
    <v>       0.00000000       0.00000000       0.09448631 </v>
   </varray>
  </crystal>
  <varray name="positions" >
   <v>       0.49816865       0.62795260       0.50093910 </v>
   <v>       0.39152890       0.55920825       0.51064840 </v>
   <v>       0.38357985       0.43214965       0.49971750 </v>
   <v>       0.50278545       0.37717075       0.50140220 </v>
   <v>       0.62329820       0.43734490       0.50730795 </v>
   <v>       0.62175655       0.56847590       0.49495360 </v>
   <v>       0.49535620       0.73884570       0.49065840 </v>
   <v>       0.28709740       0.59941525       0.51083145 </v>
   <v>       0.28977385       0.39310020       0.48212510 </v>
   <v>       0.49117660       0.26897155       0.50397105 </v>
   <v>       0.69860650       0.37171650       0.49907235 </v>
   <v>       0.71687185       0.62564865       0.49837285 </v>
  </varray>
 </structure>
 <calculation>
  <scstep>
   <time name="dav">    0.22    0.22</time>
   <time name="total">    0.49    0.49</time>
   <energy>
    <i name="alphaZ">      3.48814018 </i>
    <i name="ewald">   1119.49918395 </i>
    <i name="hartreedc">  -1759.51825067 </i>
    <i name="XCdc">     91.03907727 </i>
    <i name="pawpsdc">    663.93644290 </i>
    <i name="pawaedc">   -667.40614445 </i>
    <i name="eentropy">     -0.00000000 </i>
    <i name="bandstr">   -195.64000210 </i>
    <i name="atom">    957.82965714 </i>
    <i name="e_fr_energy">    213.22810420 </i>
    <i name="e_wo_entrp">    213.22810420 </i>
    <i name="e_0_energy">    213.22810420 </i>
   </energy>
  </scstep>
  <scstep>
   <time name="dav">    0.26    0.26</time>
   <time name="total">    0.26    0.26</time>
   <energy>
    <i name="e_fr_energy">     -3.68239990 </i>
    <i name="e_wo_entrp">     -3.68239990 </i>
    <i name="e_0_energy">     -3.68239990 </i>
   </energy>
  </scstep>
  <scstep>
   <time name="dav">    0.21    0.22</time>
   <time name="total">    0.21    0.22</time>
   <energy>
    <i name="e_fr_energy">    -76.86969686 </i>
    <i name="e_wo_entrp">    -76.86969686 </i>
    <i name="e_0_energy">    -76.86969686 </i>
   </energy>
  </scstep>
  <scstep>
   <time name="dav">    0.19    0.20</time>
   <time name="total">    0.19    0.20</time>
   <energy>
    <i name="e_fr_energy">    -82.48080823 </i>
    <i name="e_wo_entrp">    -82.48080823 </i>
    <i name="e_0_energy">    -82.48080823 </i>
   </energy>
  </scstep>
  <scstep>
   <time name="dav">    0.26    0.26</time>
   <time name="total">    0.30    0.30</time>
   <energy>
    <i name="e_fr_energy">    -82.60994803 </i>
    <i name="e_wo_entrp">    -82.60994803 </i>
    <i name="e_0_energy">    -82.60994803 </i>
   </energy>
  </scstep>
  <scstep>
   <time name="dav">    0.23    0.23</time>
   <time name="total">    0.53    0.53</time>
   <energy>
    <i name="e_fr_energy">    -76.48956295 </i>
    <i name="e_wo_entrp">    -76.48956295 </i>
    <i name="e_0_energy">    -76.48956295 </i>
   </energy>
  </scstep>
  <scstep>
   <time name="dav">    0.26    0.26</time>
   <time name="total">    0.56    0.57</time>
   <energy>
    <i name="e_fr_energy">    -74.93074528 </i>
    <i name="e_wo_entrp">    -74.93074528 </i>
    <i name="e_0_energy">    -74.93074528 </i>
   </energy>
  </scstep>
  <scstep>
   <time name="dav">    0.24    0.24</time>
   <time name="total">    0.54    0.54</time>
   <energy>
    <i name="e_fr_energy">    -74.75181060 </i>
    <i name="e_wo_entrp">    -74.75181060 </i>
    <i name="e_0_energy">    -74.75181060 </i>
   </energy>
  </scstep>
  <scstep>
   <time name="dav">    0.24    0.24</time>
   <time name="total">    0.54    0.54</time>
   <energy>
    <i name="e_fr_energy">    -74.72214122 </i>
    <i name="e_wo_entrp">    -74.72214122 </i>
    <i name="e_0_energy">    -74.72214122 </i>
   </energy>
  </scstep>
  <scstep>
   <time name="dav">    0.24    0.24</time>
   <time name="total">    0.54    0.54</time>
   <energy>
    <i name="e_fr_energy">    -74.71659838 </i>
    <i name="e_wo_entrp">    -74.71659838 </i>
    <i name="e_0_energy">    -74.71659838 </i>
   </energy>
  </scstep>
  <scstep>
   <time name="dav">    0.20    0.20</time>
   <time name="total">    0.50    0.51</time>
   <energy>
    <i name="e_fr_energy">    -74.71057323 </i>
    <i name="e_wo_entrp">    -74.71057323 </i>
    <i name="e_0_energy">    -74.71057323 </i>
   </energy>
  </scstep>
  <scstep>
   <time name="dav">    0.22    0.22</time>
   <time name="total">    0.51    0.51</time>
   <energy>
    <i name="e_fr_energy">    -74.71460156 </i>
    <i name="e_wo_entrp">    -74.71460156 </i>
    <i name="e_0_energy">    -74.71460156 </i>
   </energy>
  </scstep>
  <scstep>
   <time name="dav">    0.22    0.22</time>
   <time name="total">    0.50    0.51</time>
   <energy>
    <i name="e_fr_energy">    -74.72312598 </i>
    <i name="e_wo_entrp">    -74.72312598 </i>
    <i name="e_0_energy">    -74.72312598 </i>
   </energy>
  </scstep>
  <scstep>
   <time name="dav">    0.22    0.22</time>
   <time name="total">    0.50    0.50</time>
   <energy>
    <i name="e_fr_energy">    -74.72913145 </i>
    <i name="e_wo_entrp">    -74.72913145 </i>
    <i name="e_0_energy">    -74.72913145 </i>
   </energy>
  </scstep>
  <scstep>
   <time name="dav">    0.21    0.22</time>
   <time name="total">    0.50    0.50</time>
   <energy>
    <i name="e_fr_energy">    -74.73317509 </i>
    <i name="e_wo_entrp">    -74.73317509 </i>
    <i name="e_0_energy">    -74.73317509 </i>
   </energy>
  </scstep>
  <scstep>
   <time name="dav">    0.24    0.24</time>
   <time name="total">    0.52    0.52</time>
   <energy>
    <i name="e_fr_energy">    -74.73416556 </i>
    <i name="e_wo_entrp">    -74.73416556 </i>
    <i name="e_0_energy">    -74.73416556 </i>
   </energy>
  </scstep>
  <scstep>
   <time name="dav">    0.21    0.22</time>
   <time name="total">    0.50    0.50</time>
   <energy>
    <i name="e_fr_energy">    -74.73488619 </i>
    <i name="e_wo_entrp">    -74.73488619 </i>
    <i name="e_0_energy">    -74.73488619 </i>
   </energy>
  </scstep>
  <scstep>
   <time name="dav">    0.22    0.22</time>
   <time name="total">    0.52    0.52</time>
   <energy>
    <i name="e_fr_energy">    -74.73498319 </i>
    <i name="e_wo_entrp">    -74.73498319 </i>
    <i name="e_0_energy">    -74.73498319 </i>
   </energy>
  </scstep>
  <scstep>
   <time name="dav">    0.19    0.19</time>
   <time name="total">    0.48    0.49</time>
   <energy>
    <i name="e_fr_energy">    -74.73503664 </i>
    <i name="e_wo_entrp">    -74.73503664 </i>
    <i name="e_0_energy">    -74.73503664 </i>
   </energy>
  </scstep>
  <scstep>
   <time name="dav">    0.19    0.19</time>
   <time name="total">    0.49    0.49</time>
   <energy>
    <i name="e_fr_energy">    -74.73504917 </i>
    <i name="e_wo_entrp">    -74.73504917 </i>
    <i name="e_0_energy">    -74.73504917 </i>
   </energy>
  </scstep>
  <scstep>
   <time name="dav">    0.19    0.19</time>
   <time name="total">    0.49    0.50</time>
   <energy>
    <i name="e_fr_energy">    -74.73505432 </i>
    <i name="e_wo_entrp">    -74.73505432 </i>
    <i name="e_0_energy">    -74.73505432 </i>
   </energy>
  </scstep>
  <scstep>
   <time name="dav">    0.22    0.22</time>
   <time name="total">    0.52    0.52</time>
   <energy>
    <i name="e_fr_energy">    -74.73505541 </i>
    <i name="e_wo_entrp">    -74.73505541 </i>
    <i name="e_0_energy">    -74.73505541 </i>
   </energy>
  </scstep>
  <scstep>
   <time name="dav">    0.17    0.17</time>
   <time name="total">    0.43    0.44</time>
   <energy>
    <i name="alphaZ">      3.48814018 </i>
    <i name="ewald">   1119.49918395 </i>
    <i name="hartreedc">  -1900.98933591 </i>
    <i name="XCdc">     97.58815240 </i>
    <i name="pawpsdc">   2444.35432355 </i>
    <i name="pawaedc">  -2448.57278771 </i>
    <i name="eentropy">     -0.00000000 </i>
    <i name="bandstr">   -347.93238947 </i>
    <i name="atom">    957.82965714 </i>
    <i name="e_fr_energy">    -74.73505587 </i>
    <i name="e_wo_entrp">    -74.73505587 </i>
    <i name="e_0_energy">    -74.73505587 </i>
   </energy>
  </scstep>
  <structure>
   <crystal>
    <varray name="basis" >
     <v>      10.58354422       0.00000000       0.00000000 </v>
     <v>       0.00000000      10.58354422       0.00000000 </v>
     <v>       0.00000000       0.00000000      10.58354422 </v>
    </varray>
    <i name="volume">   1185.47769178 </i>
    <varray name="rec_basis" >
     <v>       0.09448631       0.00000000       0.00000000 </v>
     <v>       0.00000000       0.09448631       0.00000000 </v>
     <v>       0.00000000       0.00000000       0.09448631 </v>
    </varray>
   </crystal>
   <varray name="positions" >
    <v>       0.49816865       0.62795260       0.50093910 </v>
    <v>       0.39152890       0.55920825       0.51064840 </v>
    <v>       0.38357985       0.43214965       0.49971750 </v>
    <v>       0.50278545       0.37717075       0.50140220 </v>
    <v>       0.62329820       0.43734490       0.50730795 </v>
    <v>       0.62175655       0.56847590       0.49495360 </v>
    <v>       0.49535620       0.73884570       0.49065840 </v>
    <v>       0.28709740       0.59941525       0.51083145 </v>
    <v>       0.28977385       0.39310020       0.48212510 </v>
    <v>       0.49117660       0.26897155       0.50397105 </v>
    <v>       0.69860650       0.37171650       0.49907235 </v>
    <v>       0.71687185       0.62564865       0.49837285 </v>
   </varray>
  </structure>
  <varray name="forces" >
   <v>       3.27958034       3.19747084      -0.34584079 </v>
   <v>      -5.09299506       2.22149972      -0.53703685 </v>
   <v>       1.61900769      -0.39140156      -0.00792081 </v>
   <v>      -0.54238236      -3.73806846       0.24947875 </v>
   <v>      -2.75552220      -0.03645151      -0.84086234 </v>
   <v>       0.48983044       1.18219449       0.93799024 </v>
   <v>      -0.05325700      -2.24468154       0.42365759 </v>
   <v>       2.33827344       0.28833991       0.08949110 </v>
   <v>       0.42878960      -0.72502294       0.34888497 </v>
   <v>       1.04230448       1.29812452      -0.20334575 </v>
   <v>       1.29117068      -0.11431292       0.22467204 </v>
   <v>      -2.04480004      -0.93769056      -0.33916814 </v>
  </varray>
  <varray name="stress" >
   <v>     -10.37222826      -2.98409729      -0.72270081 </v>
   <v>      -2.98409729       3.68571720       0.84560349 </v>
   <v>      -0.72270081       0.84560350      -0.54889499 </v>
  </varray>
  <energy>
   <i name="e_fr_energy">    -74.73505587 </i>
   <i name="e_wo_entrp">    -74.73505587 </i>
   <i name="e_0_energy">    -74.73505587 </i>
  </energy>
  <time name="totalsc">   16.33   16.52</time>
  <eigenvalues>
   <array>
    <dimension dim="1">band</dimension>
    <dimension dim="2">kpoint</dimension>
    <dimension dim="3">spin</dimension>
    <field>eigene</field>
    <field>occ</field>
    <set>
     <set comment="spin 1">
      <set comment="kpoint 1">
       <r>  -20.9696    1.0000 </r>
       <r>  -18.2960    1.0000 </r>
       <r>  -17.7396    1.0000 </r>
       <r>  -14.4319    1.0000 </r>
       <r>  -14.2132    1.0000 </r>
       <r>  -12.3399    1.0000 </r>
       <r>  -10.7053    1.0000 </r>
       <r>  -10.3072    1.0000 </r>
       <r>  -10.0132    1.0000 </r>
       <r>   -9.2016    1.0000 </r>
       <r>   -8.7621    1.0000 </r>
       <r>   -8.0169    1.0000 </r>
       <r>   -7.0624    1.0000 </r>
       <r>   -6.1467    1.0000 </r>
       <r>   -5.7607    1.0000 </r>
       <r>   -1.0312    0.0000 </r>
       <r>   -0.7790    0.0000 </r>
       <r>   -0.5475    0.0000 </r>
       <r>    0.6071    0.0000 </r>
       <r>    0.7454    0.0000 </r>
       <r>    0.7840    0.0000 </r>
       <r>    0.8815    0.0000 </r>
       <r>    0.9611    0.0000 </r>
       <r>    1.4245    0.0000 </r>
      </set>
     </set>
    </set>
   </array>
  </eigenvalues>
  <separator name="orbital magnetization" >
   <v name="MAGDIPOLOUT">      0.00000000      0.00000000      0.00000000</v>
  </separator>
  <dos>
   <i name="efermi">     -5.49761288 </i>
   <total>
    <array>
     <dimension dim="1">gridpoints</dimension>
     <dimension dim="2">spin</dimension>
     <field>energy</field>
     <field>total</field>
     <field>integrated</field>
     <set>
      <set comment="spin 1">
       <r>   -22.0893     0.0000     0.0000 </r>
       <r>   -22.0072     0.0000     0.0000 </r>
       <r>   -21.9251     0.0000     0.0000 </r>
       <r>   -21.8430     0.0000     0.0000 </r>
       <r>   -21.7609     0.0000     0.0000 </r>
       <r>   -21.6788     0.0000     0.0000 </r>
       <r>   -21.5966     0.0000     0.0000 </r>
       <r>   -21.5145     0.0000     0.0000 </r>
       <r>   -21.4324     0.0000     0.0000 </r>
       <r>   -21.3503     0.0000     0.0000 </r>
       <r>   -21.2682     0.0000     0.0000 </r>
       <r>   -21.1861     0.0000     0.0000 </r>
       <r>   -21.1040     0.0018     0.0001 </r>
       <r>   -21.0219     1.6962     0.1394 </r>
       <r>   -20.9397    17.8075     1.6016 </r>
       <r>   -20.8576     4.8328     1.9985 </r>
       <r>   -20.7755     0.0188     2.0000 </r>
       <r>   -20.6934     0.0000     2.0000 </r>
       <r>   -20.6113     0.0000     2.0000 </r>
       <r>   -20.5292     0.0000     2.0000 </r>
       <r>   -20.4471     0.0000     2.0000 </r>
       <r>   -20.3650     0.0000     2.0000 </r>
       <r>   -20.2829     0.0000     2.0000 </r>
       <r>   -20.2007     0.0000     2.0000 </r>
       <r>   -20.1186     0.0000     2.0000 </r>
       <r>   -20.0365     0.0000     2.0000 </r>
       <r>   -19.9544     0.0000     2.0000 </r>
       <r>   -19.8723     0.0000     2.0000 </r>
       <r>   -19.7902     0.0000     2.0000 </r>
       <r>   -19.7081     0.0000     2.0000 </r>
       <r>   -19.6260     0.0000     2.0000 </r>
       <r>   -19.5438     0.0000     2.0000 </r>
       <r>   -19.4617     0.0000     2.0000 </r>
       <r>   -19.3796     0.0000     2.0000 </r>
       <r>   -19.2975     0.0000     2.0000 </r>
       <r>   -19.2154     0.0000     2.0000 </r>
       <r>   -19.1333     0.0000     2.0000 </r>
       <r>   -19.0512     0.0000     2.0000 </r>
       <r>   -18.9691     0.0000     2.0000 </r>
       <r>   -18.8870     0.0000     2.0000 </r>
       <r>   -18.8048     0.0000     2.0000 </r>
       <r>   -18.7227     0.0000     2.0000 </r>
       <r>   -18.6406     0.0000     2.0000 </r>
       <r>   -18.5585     0.0000     2.0000 </r>
       <r>   -18.4764     0.0000     2.0000 </r>
       <r>   -18.3943     0.0660     2.0054 </r>
       <r>   -18.3122     7.8107     2.6468 </r>
       <r>   -18.2301    15.7217     3.9377 </r>
       <r>   -18.1479     0.7583     4.0000 </r>
       <r>   -18.0658     0.0003     4.0000 </r>
       <r>   -17.9837     0.0000     4.0000 </r>
       <r>   -17.9016     0.0001     4.0000 </r>
       <r>   -17.8195     0.2906     4.0239 </r>
       <r>   -17.7374    12.5015     5.0504 </r>
       <r>   -17.6553    11.3573     5.9830 </r>
       <r>   -17.5732     0.2076     6.0000 </r>
       <r>   -17.4911     0.0000     6.0000 </r>
       <r>   -17.4089     0.0000     6.0000 </r>
       <r>   -17.3268     0.0000     6.0000 </r>
       <r>   -17.2447     0.0000     6.0000 </r>
       <r>   -17.1626     0.0000     6.0000 </r>
       <r>   -17.0805     0.0000     6.0000 </r>
       <r>   -16.9984     0.0000     6.0000 </r>
       <r>   -16.9163     0.0000     6.0000 </r>
       <r>   -16.8342     0.0000     6.0000 </r>
       <r>   -16.7520     0.0000     6.0000 </r>
       <r>   -16.6699     0.0000     6.0000 </r>
       <r>   -16.5878     0.0000     6.0000 </r>
       <r>   -16.5057     0.0000     6.0000 </r>
       <r>   -16.4236     0.0000     6.0000 </r>
       <r>   -16.3415     0.0000     6.0000 </r>
       <r>   -16.2594     0.0000     6.0000 </r>
       <r>   -16.1773     0.0000     6.0000 </r>
       <r>   -16.0952     0.0000     6.0000 </r>
       <r>   -16.0130     0.0000     6.0000 </r>
       <r>   -15.9309     0.0000     6.0000 </r>
       <r>   -15.8488     0.0000     6.0000 </r>
       <r>   -15.7667     0.0000     6.0000 </r>
       <r>   -15.6846     0.0000     6.0000 </r>
       <r>   -15.6025     0.0000     6.0000 </r>
       <r>   -15.5204     0.0000     6.0000 </r>
       <r>   -15.4383     0.0000     6.0000 </r>
       <r>   -15.3561     0.0000     6.0000 </r>
       <r>   -15.2740     0.0000     6.0000 </r>
       <r>   -15.1919     0.0000     6.0000 </r>
       <r>   -15.1098     0.0000     6.0000 </r>
       <r>   -15.0277     0.0000     6.0000 </r>
       <r>   -14.9456     0.0000     6.0000 </r>
       <r>   -14.8635     0.0000     6.0000 </r>
       <r>   -14.7814     0.0000     6.0000 </r>
       <r>   -14.6993     0.0000     6.0000 </r>
       <r>   -14.6171     0.0000     6.0000 </r>
       <r>   -14.5350     0.0429     6.0035 </r>
       <r>   -14.4529     6.6720     6.5514 </r>
       <r>   -14.3708    16.6167     7.9158 </r>
       <r>   -14.2887     1.4243     8.0328 </r>
       <r>   -14.2066    13.5956     9.1491 </r>
       <r>   -14.1245    10.2158     9.9879 </r>
       <r>   -14.0424     0.1468    10.0000 </r>
       <r>   -13.9603     0.0000    10.0000 </r>
       <r>   -13.8781     0.0000    10.0000 </r>
       <r>   -13.7960     0.0000    10.0000 </r>
       <r>   -13.7139     0.0000    10.0000 </r>
       <r>   -13.6318     0.0000    10.0000 </r>
       <r>   -13.5497     0.0000    10.0000 </r>
       <r>   -13.4676     0.0000    10.0000 </r>
       <r>   -13.3855     0.0000    10.0000 </r>
       <r>   -13.3034     0.0000    10.0000 </r>
       <r>   -13.2212     0.0000    10.0000 </r>
       <r>   -13.1391     0.0000    10.0000 </r>
       <r>   -13.0570     0.0000    10.0000 </r>
       <r>   -12.9749     0.0000    10.0000 </r>
       <r>   -12.8928     0.0000    10.0000 </r>
       <r>   -12.8107     0.0000    10.0000 </r>
       <r>   -12.7286     0.0000    10.0000 </r>
       <r>   -12.6465     0.0000    10.0000 </r>
       <r>   -12.5644     0.0000    10.0000 </r>
       <r>   -12.4822     0.0007    10.0001 </r>
       <r>   -12.4001     1.0776    10.0885 </r>
       <r>   -12.3180    16.7548    11.4643 </r>
       <r>   -12.2359     6.4842    11.9967 </r>
       <r>   -12.1538     0.0397    12.0000 </r>
       <r>   -12.0717     0.0000    12.0000 </r>
       <r>   -11.9896     0.0000    12.0000 </r>
       <r>   -11.9075     0.0000    12.0000 </r>
       <r>   -11.8253     0.0000    12.0000 </r>
       <r>   -11.7432     0.0000    12.0000 </r>
       <r>   -11.6611     0.0000    12.0000 </r>
       <r>   -11.5790     0.0000    12.0000 </r>
       <r>   -11.4969     0.0000    12.0000 </r>
       <r>   -11.4148     0.0000    12.0000 </r>
       <r>   -11.3327     0.0000    12.0000 </r>
       <r>   -11.2506     0.0000    12.0000 </r>
       <r>   -11.1685     0.0000    12.0000 </r>
       <r>   -11.0863     0.0000    12.0000 </r>
       <r>   -11.0042     0.0000    12.0000 </r>
       <r>   -10.9221     0.0000    12.0000 </r>
       <r>   -10.8400     0.0017    12.0001 </r>
       <r>   -10.7579     1.6644    12.1368 </r>
       <r>   -10.6758    17.7721    13.5961 </r>
       <r>   -10.5937     4.8995    13.9984 </r>
       <r>   -10.5116     0.0194    14.0000 </r>
       <r>   -10.4294     0.0066    14.0005 </r>
       <r>   -10.3473     3.1140    14.2562 </r>
       <r>   -10.2652    18.3724    15.7648 </r>
       <r>   -10.1831     2.8586    15.9996 </r>
       <r>   -10.1010     0.1637    16.0130 </r>
       <r>   -10.0189    10.4587    16.8718 </r>
       <r>    -9.9368    13.3664    17.9693 </r>
       <r>    -9.8547     0.3737    18.0000 </r>
       <r>    -9.7726     0.0001    18.0000 </r>
       <r>    -9.6904     0.0000    18.0000 </r>
       <r>    -9.6083     0.0000    18.0000 </r>
       <r>    -9.5262     0.0000    18.0000 </r>
       <r>    -9.4441     0.0000    18.0000 </r>
       <r>    -9.3620     0.0001    18.0000 </r>
       <r>    -9.2799     0.3262    18.0268 </r>
       <r>    -9.1978    12.8986    19.0859 </r>
       <r>    -9.1157    10.9486    19.9849 </r>
       <r>    -9.0335     0.1837    20.0000 </r>
       <r>    -8.9514     0.0000    20.0000 </r>
       <r>    -8.8693     0.0294    20.0024 </r>
       <r>    -8.7872     5.7754    20.4766 </r>
       <r>    -8.7051    17.2463    21.8928 </r>
       <r>    -8.6230     1.3049    21.9999 </r>
       <r>    -8.5409     0.0010    22.0000 </r>
       <r>    -8.4588     0.0000    22.0000 </r>
       <r>    -8.3767     0.0000    22.0000 </r>
       <r>    -8.2945     0.0000    22.0000 </r>
       <r>    -8.2124     0.0000    22.0000 </r>
       <r>    -8.1303     0.0164    22.0013 </r>
       <r>    -8.0482     4.5696    22.3766 </r>
       <r>    -7.9661    17.9398    23.8496 </r>
       <r>    -7.8840     1.8292    23.9998 </r>
       <r>    -7.8019     0.0021    24.0000 </r>
       <r>    -7.7198     0.0000    24.0000 </r>
       <r>    -7.6376     0.0000    24.0000 </r>
       <r>    -7.5555     0.0000    24.0000 </r>
       <r>    -7.4734     0.0000    24.0000 </r>
       <r>    -7.3913     0.0000    24.0000 </r>
       <r>    -7.3092     0.0000    24.0000 </r>
       <r>    -7.2271     0.0000    24.0000 </r>
       <r>    -7.1450     0.2372    24.0195 </r>
       <r>    -7.0629    11.8078    24.9890 </r>
       <r>    -6.9808    12.0567    25.9790 </r>
       <r>    -6.8986     0.2552    26.0000 </r>
       <r>    -6.8165     0.0000    26.0000 </r>
       <r>    -6.7344     0.0000    26.0000 </r>
       <r>    -6.6523     0.0000    26.0000 </r>
       <r>    -6.5702     0.0000    26.0000 </r>
       <r>    -6.4881     0.0000    26.0000 </r>
       <r>    -6.4060     0.0000    26.0000 </r>
       <r>    -6.3239     0.0000    26.0000 </r>
       <r>    -6.2418     0.0871    26.0072 </r>
       <r>    -6.1596     8.6030    26.7136 </r>
       <r>    -6.0775    15.0514    27.9495 </r>
       <r>    -5.9954     0.6152    28.0000 </r>
       <r>    -5.9133     0.0004    28.0000 </r>
       <r>    -5.8312     0.5623    28.0462 </r>
       <r>    -5.7491    14.7540    29.2577 </r>
       <r>    -5.6670     8.9430    29.9920 </r>
       <r>    -5.5849     0.0977    30.0000 </r>
       <r>    -5.5027     0.0000    30.0000 </r>
       <r>    -5.4206     0.0000    30.0000 </r>
       <r>    -5.3385     0.0000    30.0000 </r>
       <r>    -5.2564     0.0000    30.0000 </r>
       <r>    -5.1743     0.0000    30.0000 </r>
       <r>    -5.0922     0.0000    30.0000 </r>
       <r>    -5.0101     0.0000    30.0000 </r>
       <r>    -4.9280     0.0000    30.0000 </r>
       <r>    -4.8459     0.0000    30.0000 </r>
       <r>    -4.7637     0.0000    30.0000 </r>
       <r>    -4.6816     0.0000    30.0000 </r>
       <r>    -4.5995     0.0000    30.0000 </r>
       <r>    -4.5174     0.0000    30.0000 </r>
       <r>    -4.4353     0.0000    30.0000 </r>
       <r>    -4.3532     0.0000    30.0000 </r>
       <r>    -4.2711     0.0000    30.0000 </r>
       <r>    -4.1890     0.0000    30.0000 </r>
       <r>    -4.1068     0.0000    30.0000 </r>
       <r>    -4.0247     0.0000    30.0000 </r>
       <r>    -3.9426     0.0000    30.0000 </r>
       <r>    -3.8605     0.0000    30.0000 </r>
       <r>    -3.7784     0.0000    30.0000 </r>
       <r>    -3.6963     0.0000    30.0000 </r>
       <r>    -3.6142     0.0000    30.0000 </r>
       <r>    -3.5321     0.0000    30.0000 </r>
       <r>    -3.4500     0.0000    30.0000 </r>
       <r>    -3.3678     0.0000    30.0000 </r>
       <r>    -3.2857     0.0000    30.0000 </r>
       <r>    -3.2036     0.0000    30.0000 </r>
       <r>    -3.1215     0.0000    30.0000 </r>
       <r>    -3.0394     0.0000    30.0000 </r>
       <r>    -2.9573     0.0000    30.0000 </r>
       <r>    -2.8752     0.0000    30.0000 </r>
       <r>    -2.7931     0.0000    30.0000 </r>
       <r>    -2.7109     0.0000    30.0000 </r>
       <r>    -2.6288     0.0000    30.0000 </r>
       <r>    -2.5467     0.0000    30.0000 </r>
       <r>    -2.4646     0.0000    30.0000 </r>
       <r>    -2.3825     0.0000    30.0000 </r>
       <r>    -2.3004     0.0000    30.0000 </r>
       <r>    -2.2183     0.0000    30.0000 </r>
       <r>    -2.1362     0.0000    30.0000 </r>
       <r>    -2.0541     0.0000    30.0000 </r>
       <r>    -1.9719     0.0000    30.0000 </r>
       <r>    -1.8898     0.0000    30.0000 </r>
       <r>    -1.8077     0.0000    30.0000 </r>
       <r>    -1.7256     0.0000    30.0000 </r>
       <r>    -1.6435     0.0000    30.0000 </r>
       <r>    -1.5614     0.0000    30.0000 </r>
       <r>    -1.4793     0.0000    30.0000 </r>
       <r>    -1.3972     0.0000    30.0000 </r>
       <r>    -1.3150     0.0000    30.0000 </r>
       <r>    -1.2329     0.0000    30.0000 </r>
       <r>    -1.1508     0.0087    30.0007 </r>
       <r>    -1.0687     3.5031    30.2884 </r>
       <r>    -0.9866    18.3194    31.7926 </r>
       <r>    -0.9045     2.5264    32.0000 </r>
       <r>    -0.8224     2.6758    32.2198 </r>
       <r>    -0.7403    18.3513    33.7266 </r>
       <r>    -0.6582     3.3430    34.0011 </r>
       <r>    -0.5760     5.0912    34.4192 </r>
       <r>    -0.4939    17.6706    35.8701 </r>
       <r>    -0.4118     1.5802    35.9999 </r>
       <r>    -0.3297     0.0015    36.0000 </r>
       <r>    -0.2476     0.0000    36.0000 </r>
       <r>    -0.1655     0.0000    36.0000 </r>
       <r>    -0.0834     0.0000    36.0000 </r>
       <r>    -0.0013     0.0000    36.0000 </r>
       <r>     0.0809     0.0000    36.0000 </r>
       <r>     0.1630     0.0000    36.0000 </r>
       <r>     0.2451     0.0000    36.0000 </r>
       <r>     0.3272     0.0000    36.0000 </r>
       <r>     0.4093     0.0000    36.0000 </r>
       <r>     0.4914     0.0130    36.0011 </r>
       <r>     0.5735     4.1619    36.3428 </r>
       <r>     0.6556    18.2567    37.8419 </r>
       <r>     0.7377    14.3374    39.0192 </r>
       <r>     0.8199    33.0830    41.7357 </r>
       <r>     0.9020    21.8593    43.5306 </r>
       <r>     0.9841    23.7422    45.4801 </r>
       <r>     1.0662     6.2957    45.9970 </r>
       <r>     1.1483     0.0361    46.0000 </r>
       <r>     1.2304     0.0000    46.0000 </r>
       <r>     1.3125     0.0188    46.0015 </r>
       <r>     1.3946     4.8328    46.3984 </r>
       <r>     1.4767    17.8075    47.8606 </r>
       <r>     1.5589     1.6962    47.9999 </r>
       <r>     1.6410     0.0018    48.0000 </r>
       <r>     1.7231     0.0000    48.0000 </r>
       <r>     1.8052     0.0000    48.0000 </r>
       <r>     1.8873     0.0000    48.0000 </r>
       <r>     1.9694     0.0000    48.0000 </r>
       <r>     2.0515     0.0000    48.0000 </r>
       <r>     2.1336     0.0000    48.0000 </r>
       <r>     2.2158     0.0000    48.0000 </r>
       <r>     2.2979     0.0000    48.0000 </r>
       <r>     2.3800     0.0000    48.0000 </r>
       <r>     2.4621     0.0000    48.0000 </r>
       <r>     2.5442     0.0000    48.0000 </r>
      </set>
     </set>
    </array>
   </total>
  </dos>
 </calculation>
 <structure name="finalpos" >
  <crystal>
   <varray name="basis" >
    <v>      10.58354422       0.00000000       0.00000000 </v>
    <v>       0.00000000      10.58354422       0.00000000 </v>
    <v>       0.00000000       0.00000000      10.58354422 </v>
   </varray>
   <i name="volume">   1185.47769178 </i>
   <varray name="rec_basis" >
    <v>       0.09448631       0.00000000       0.00000000 </v>
    <v>       0.00000000       0.09448631       0.00000000 </v>
    <v>       0.00000000       0.00000000       0.09448631 </v>
   </varray>
  </crystal>
  <varray name="positions" >
   <v>       0.49816865       0.62795260       0.50093910 </v>
   <v>       0.39152890       0.55920825       0.51064840 </v>
   <v>       0.38357985       0.43214965       0.49971750 </v>
   <v>       0.50278545       0.37717075       0.50140220 </v>
   <v>       0.62329820       0.43734490       0.50730795 </v>
   <v>       0.62175655       0.56847590       0.49495360 </v>
   <v>       0.49535620       0.73884570       0.49065840 </v>
   <v>       0.28709740       0.59941525       0.51083145 </v>
   <v>       0.28977385       0.39310020       0.48212510 </v>
   <v>       0.49117660       0.26897155       0.50397105 </v>
   <v>       0.69860650       0.37171650       0.49907235 </v>
   <v>       0.71687185       0.62564865       0.49837285 </v>
  </varray>
 </structure>
</modeling>
