<?xml version="1.0" encoding="ISO-8859-1"?>
<modeling>
 <generator>
  <i name="program" type="string">vasp </i>
  <i name="version" type="string">5.4.4.18Apr17-6-g9f103f2a35  </i>
  <i name="subversion" type="string">(build Oct  7 2019 15:10:45) complex            parallel </i>
  <i name="platform" type="string">LinuxGNU </i>
  <i name="date" type="string">2021 11 10 </i>
  <i name="time" type="string">04:00:24 </i>
 </generator>
 <incar>
  <i type="string" name="SYSTEM">mos2</i>
  <i type="int" name="ISTART">     0</i>
  <i type="string" name="PREC">accurate</i>
  <i type="string" name="ALGO"> Normal</i>
  <i type="int" name="NSIM">     4</i>
  <i type="int" name="NELM">  1000</i>
  <i type="int" name="NELMIN">     2</i>
  <i type="int" name="IBRION">    -1</i>
  <i name="EDIFF">      0.00000100</i>
  <i type="int" name="NSW">     0</i>
  <i name="ENCUT">    600.00000000</i>
  <i type="string" name="LREAL"> Auto</i>
  <i type="int" name="ISMEAR">     0</i>
  <i name="SIGMA">      0.05000000</i>
  <i type="logical" name="LWAVE"> F  </i>
  <i type="logical" name="LCHARG"> T  </i>
  <v type="int" name="KPOINT_BSE">    -1     0     0     0</v>
  <i type="int" name="NELM">  1000</i>
 </incar>
 <structure name="primitive_cell" >
  <crystal>
   <varray name="basis" >
    <v>       9.56424100       0.00000000       0.00000000 </v>
    <v>      -4.78212000       8.28287600       0.00000000 </v>
    <v>      -0.00000000       0.00000000      18.15827300 </v>
   </varray>
   <i name="volume">   1438.48789588 </i>
   <varray name="rec_basis" >
    <v>       0.10455613       0.06036550       0.00000000 </v>
    <v>       0.00000000       0.12073101      -0.00000000 </v>
    <v>       0.00000000      -0.00000000       0.05507132 </v>
   </varray>
  </crystal>
  <varray name="positions" >
   <v>       0.04033657       0.01692807       0.49288853 </v>
   <v>       0.21868905       0.11412394      -0.41186414 </v>
   <v>       0.12497125      -0.10870998       0.40142276 </v>
   <v>       0.11417672       0.23900861       0.40771729 </v>
   <v>      -0.21631627      -0.12427293       0.42802143 </v>
   <v>      -0.10718889       0.10003281      -0.41617279 </v>
   <v>      -0.11758034      -0.21589262      -0.41635504 </v>
   <v>      -0.01261817      -0.30846054      -0.49972675 </v>
   <v>       0.31929510       0.34932777       0.49916487 </v>
   <v>       0.32456177      -0.03323156       0.49903955 </v>
   <v>      -0.03485713       0.29332474       0.49715467 </v>
   <v>       0.43828533       0.22906896       0.42800046 </v>
   <v>      -0.34846669       0.01745394      -0.49918421 </v>
   <v>      -0.35875107      -0.37624474       0.49977882 </v>
   <v>       0.22466584      -0.22492023      -0.41227242 </v>
   <v>       0.21201840       0.45114861      -0.41302508 </v>
   <v>      -0.22587961      -0.44737229       0.40974031 </v>
   <v>      -0.23481971       0.22106886       0.40788506 </v>
   <v>      -0.43224336      -0.22780544      -0.40791728 </v>
   <v>      -0.45094681       0.11461130      -0.41474014 </v>
   <v>      -0.44880777       0.42369778      -0.40497255 </v>
   <v>       0.44429686      -0.44206602       0.41066804 </v>
   <v>       0.45351667      -0.10891969       0.41272799 </v>
   <v>       0.11019193      -0.44525214       0.42985432 </v>
   <v>      -0.10363245       0.45264047      -0.41691084 </v>
   <v>      -0.30243379       0.35197245       0.49938548 </v>
   <v>       0.37179809      -0.31113363      -0.49578962 </v>
  </varray>
 </structure>
 <varray name="primitive_index" >
  <v type="int" >        1 </v>
  <v type="int" >       11 </v>
  <v type="int" >       16 </v>
  <v type="int" >       12 </v>
  <v type="int" >       27 </v>
  <v type="int" >       22 </v>
  <v type="int" >       26 </v>
  <v type="int" >        9 </v>
  <v type="int" >        2 </v>
  <v type="int" >        4 </v>
  <v type="int" >        7 </v>
  <v type="int" >       17 </v>
  <v type="int" >        3 </v>
  <v type="int" >        8 </v>
  <v type="int" >       15 </v>
  <v type="int" >       13 </v>
  <v type="int" >       25 </v>
  <v type="int" >       23 </v>
  <v type="int" >       20 </v>
  <v type="int" >       10 </v>
  <v type="int" >       19 </v>
  <v type="int" >       21 </v>
  <v type="int" >       18 </v>
  <v type="int" >       14 </v>
  <v type="int" >       24 </v>
  <v type="int" >        6 </v>
  <v type="int" >        5 </v>
 </varray>
 <kpoints>
  <generation param="Gamma">
   <v type="int" name="divisions">       6        6        1 </v>
   <v name="usershift">      0.00000000       0.00000000       0.00000000 </v>
   <v name="genvec1">      0.16666667       0.00000000       0.00000000 </v>
   <v name="genvec2">      0.00000000       0.16666667       0.00000000 </v>
   <v name="genvec3">      0.00000000       0.00000000       1.00000000 </v>
   <v name="shift">      0.00000000       0.00000000       0.00000000 </v>
  </generation>
  <varray name="kpointlist" >
   <v>       0.00000000       0.00000000       0.00000000 </v>
   <v>       0.16666667       0.00000000       0.00000000 </v>
   <v>       0.33333333       0.00000000       0.00000000 </v>
   <v>       0.50000000       0.00000000       0.00000000 </v>
   <v>       0.00000000       0.16666667       0.00000000 </v>
   <v>       0.16666667       0.16666667       0.00000000 </v>
   <v>       0.33333333       0.16666667       0.00000000 </v>
   <v>       0.50000000       0.16666667       0.00000000 </v>
   <v>      -0.33333333       0.16666667       0.00000000 </v>
   <v>      -0.16666667       0.16666667       0.00000000 </v>
   <v>       0.00000000       0.33333333       0.00000000 </v>
   <v>       0.16666667       0.33333333       0.00000000 </v>
   <v>       0.33333333       0.33333333       0.00000000 </v>
   <v>       0.50000000       0.33333333       0.00000000 </v>
   <v>      -0.33333333       0.33333333       0.00000000 </v>
   <v>      -0.16666667       0.33333333       0.00000000 </v>
   <v>       0.00000000       0.50000000       0.00000000 </v>
   <v>       0.16666667       0.50000000       0.00000000 </v>
   <v>       0.33333333       0.50000000       0.00000000 </v>
   <v>       0.50000000       0.50000000       0.00000000 </v>
  </varray>
  <varray name="weights" >
   <v>       0.02777778 </v>
   <v>       0.05555556 </v>
   <v>       0.05555556 </v>
   <v>       0.02777778 </v>
   <v>       0.05555556 </v>
   <v>       0.05555556 </v>
   <v>       0.05555556 </v>
   <v>       0.05555556 </v>
   <v>       0.05555556 </v>
   <v>       0.05555556 </v>
   <v>       0.05555556 </v>
   <v>       0.05555556 </v>
   <v>       0.05555556 </v>
   <v>       0.05555556 </v>
   <v>       0.05555556 </v>
   <v>       0.05555556 </v>
   <v>       0.02777778 </v>
   <v>       0.05555556 </v>
   <v>       0.05555556 </v>
   <v>       0.02777778 </v>
  </varray>
 </kpoints>
 <parameters>
  <separator name="general" >
   <i type="string" name="SYSTEM">mos2</i>
   <i type="logical" name="LCOMPAT"> F  </i>
  </separator>
  <separator name="electronic" >
   <i type="string" name="PREC">accura</i>
   <i name="ENMAX">    600.00000000</i>
   <i name="ENAUG">    446.01400000</i>
   <i name="EDIFF">      0.00000100</i>
   <i type="int" name="IALGO">    38</i>
   <i type="int" name="IWAVPR">    10</i>
   <i type="int" name="NBANDS">   140</i>
   <i name="NELECT">    234.00000000</i>
   <i type="int" name="TURBO">     0</i>
   <i type="int" name="IRESTART">     0</i>
   <i type="int" name="NREBOOT">     0</i>
   <i type="int" name="NMIN">     0</i>
   <i name="EREF">      0.00000000</i>
   <separator name="electronic smearing" >
    <i type="int" name="ISMEAR">     0</i>
    <i name="SIGMA">      0.05000000</i>
    <i name="KSPACING">      0.50000000</i>
    <i type="logical" name="KGAMMA"> T  </i>
   </separator>
   <separator name="electronic projectors" >
    <i type="logical" name="LREAL"> T  </i>
    <v name="ROPT">     -0.00025000     -0.00025000</v>
    <i type="int" name="LMAXPAW">  -100</i>
    <i type="int" name="LMAXMIX">     2</i>
    <i type="logical" name="NLSPLINE"> F  </i>
   </separator>
   <separator name="electronic startup" >
    <i type="int" name="ISTART">     0</i>
    <i type="int" name="ICHARG">     2</i>
    <i type="int" name="INIWAV">     1</i>
   </separator>
   <separator name="electronic spin" >
    <i type="int" name="ISPIN">     1</i>
    <i type="logical" name="LNONCOLLINEAR"> F  </i>
    <v name="MAGMOM">      1.00000000      1.00000000      1.00000000      1.00000000      1.00000000      1.00000000      1.00000000      1.00000000      1.00000000      1.00000000      1.00000000      1.00000000      1.00000000      1.00000000      1.00000000      1.00000000      1.00000000      1.00000000      1.00000000      1.00000000
      1.00000000      1.00000000      1.00000000      1.00000000      1.00000000      1.00000000      1.00000000</v>
    <i name="NUPDOWN">     -1.00000000</i>
    <i type="logical" name="LSORBIT"> F  </i>
    <v name="SAXIS">      0.00000000      0.00000000      1.00000000</v>
    <i type="logical" name="LSPIRAL"> F  </i>
    <v name="QSPIRAL">      0.00000000      0.00000000      0.00000000</v>
    <i type="logical" name="LZEROZ"> F  </i>
   </separator>
   <separator name="electronic exchange-correlation" >
    <i type="logical" name="LASPH"> F  </i>
    <i type="logical" name="LMETAGGA"> F  </i>
   </separator>
   <separator name="electronic convergence" >
    <i type="int" name="NELM">  1000</i>
    <i type="int" name="NELMDL">    -5</i>
    <i type="int" name="NELMIN">     2</i>
    <i name="ENINI">    600.00000000</i>
    <separator name="electronic convergence detail" >
     <i type="logical" name="LDIAG"> T  </i>
     <i type="logical" name="LSUBROT"> F  </i>
     <i name="WEIMIN">      0.00000000</i>
     <i name="EBREAK">      0.00000000</i>
     <i name="DEPER">      0.30000000</i>
     <i type="int" name="NRMM">     4</i>
     <i name="TIME">      0.40000000</i>
    </separator>
   </separator>
   <separator name="electronic mixer" >
    <i name="AMIX">      0.40000000</i>
    <i name="BMIX">      1.00000000</i>
    <i name="AMIN">      0.10000000</i>
    <i name="AMIX_MAG">      1.60000000</i>
    <i name="BMIX_MAG">      1.00000000</i>
    <separator name="electronic mixer details" >
     <i type="int" name="IMIX">     4</i>
     <i type="logical" name="MIXFIRST"> F  </i>
     <i type="int" name="MAXMIX">   -45</i>
     <i name="WC">    100.00000000</i>
     <i type="int" name="INIMIX">     1</i>
     <i type="int" name="MIXPRE">     1</i>
     <i type="int" name="MREMOVE">     5</i>
    </separator>
   </separator>
   <separator name="electronic dipolcorrection" >
    <i type="logical" name="LDIPOL"> F  </i>
    <i type="logical" name="LMONO"> F  </i>
    <i type="int" name="IDIPOL">     0</i>
    <i name="EPSILON">      1.00000000</i>
    <v name="DIPOL">   -100.00000000   -100.00000000   -100.00000000</v>
    <i name="EFIELD">      0.00000000</i>
   </separator>
  </separator>
  <separator name="grids" >
   <i type="int" name="NGX">    80</i>
   <i type="int" name="NGY">    80</i>
   <i type="int" name="NGZ">   150</i>
   <i type="int" name="NGXF">   160</i>
   <i type="int" name="NGYF">   160</i>
   <i type="int" name="NGZF">   300</i>
   <i type="logical" name="ADDGRID"> F  </i>
  </separator>
  <separator name="ionic" >
   <i type="int" name="NSW">     0</i>
   <i type="int" name="IBRION">    -1</i>
   <i type="int" name="MDALGO">     0</i>
   <i type="int" name="ISIF">     2</i>
   <i name="PSTRESS">      0.00000000</i>
   <i name="EDIFFG">      0.00001000</i>
   <i type="int" name="NFREE">     0</i>
   <i name="POTIM">      0.50000000</i>
   <i name="SMASS">     -3.00000000</i>
   <i name="SCALEE">      1.00000000</i>
  </separator>
  <separator name="ionic md" >
   <i name="TEBEG">      0.00010000</i>
   <i name="TEEND">      0.00010000</i>
   <i type="int" name="NBLOCK">     1</i>
   <i type="int" name="KBLOCK">     1</i>
   <i type="int" name="NPACO">   256</i>
   <i name="APACO">     16.00000000</i>
  </separator>
  <separator name="symmetry" >
   <i type="int" name="ISYM">     2</i>
   <i name="SYMPREC">      0.00001000</i>
  </separator>
  <separator name="dos" >
   <i type="int" name="LORBIT">     0</i>
   <v name="RWIGS">     -1.00000000     -1.00000000</v>
   <i type="int" name="NEDOS">   301</i>
   <i name="EMIN">     10.00000000</i>
   <i name="EMAX">    -10.00000000</i>
   <i name="EFERMI">      0.00000000</i>
  </separator>
  <separator name="writing" >
   <i type="int" name="NWRITE">     2</i>
   <i type="logical" name="LWAVE"> F  </i>
   <i type="logical" name="LDOWNSAMPLE"> F  </i>
   <i type="logical" name="LCHARG"> T  </i>
   <i type="logical" name="LPARD"> F  </i>
   <i type="logical" name="LVTOT"> F  </i>
   <i type="logical" name="LVHAR"> F  </i>
   <i type="logical" name="LELF"> F  </i>
   <i type="logical" name="LOPTICS"> F  </i>
   <v name="STM">      0.00000000      0.00000000      0.00000000      0.00000000      0.00000000      0.00000000      0.00000000</v>
  </separator>
  <separator name="performance" >
   <i type="int" name="NPAR">     4</i>
   <i type="int" name="NSIM">     4</i>
   <i type="int" name="NBLK">    -1</i>
   <i type="logical" name="LPLANE"> T  </i>
   <i type="logical" name="LSCALAPACK"> T  </i>
   <i type="logical" name="LSCAAWARE"> F  </i>
   <i type="logical" name="LSCALU"> F  </i>
   <i type="logical" name="LASYNC"> F  </i>
   <i type="logical" name="LORBITALREAL"> F  </i>
  </separator>
  <separator name="miscellaneous" >
   <i type="int" name="IDIOT">     3</i>
   <i type="int" name="ISPECIAL">     0</i>
   <i type="logical" name="LMUSIC"> F  </i>
   <v name="POMASS">     95.94000000     32.06600000</v>
   <v name="DARWINR">      0.00000000      0.00000000</v>
   <v name="DARWINV">      1.00000000      1.00000000</v>
   <i type="logical" name="LCORR"> T  </i>
  </separator>
  <i type="logical" name="GGA_COMPAT"> T  </i>
  <i type="logical" name="LBERRY"> F  </i>
  <i type="int" name="ICORELEVEL">     0</i>
  <i type="logical" name="LDAU"> F  </i>
  <i type="int" name="I_CONSTRAINED_M">     0</i>
  <separator name="electronic exchange-correlation" >
   <i type="string" name="GGA">--</i>
   <i type="int" name="VOSKOWN">     0</i>
   <i type="logical" name="LHFCALC"> F  </i>
   <i type="string" name="PRECFOCK"></i>
   <i type="logical" name="LSYMGRAD"> F  </i>
   <i type="logical" name="LHFONE"> F  </i>
   <i type="logical" name="LRHFCALC"> F  </i>
   <i type="logical" name="LTHOMAS"> F  </i>
   <i type="logical" name="LMODELHF"> F  </i>
   <i name="ENCUT4O">     -1.00000000</i>
   <i type="int" name="EXXOEP">     0</i>
   <i type="int" name="FOURORBIT">     0</i>
   <i name="AEXX">      0.00000000</i>
   <i name="HFALPHA">      0.00000000</i>
   <i name="MCALPHA">      0.00000000</i>
   <i name="ALDAX">      1.00000000</i>
   <i name="AGGAX">      1.00000000</i>
   <i name="ALDAC">      1.00000000</i>
   <i name="AGGAC">      1.00000000</i>
   <i type="int" name="NKREDX">     1</i>
   <i type="int" name="NKREDY">     1</i>
   <i type="int" name="NKREDZ">     1</i>
   <i type="logical" name="SHIFTRED"> F  </i>
   <i type="logical" name="ODDONLY"> F  </i>
   <i type="logical" name="EVENONLY"> F  </i>
   <i type="int" name="LMAXFOCK">     0</i>
   <i type="int" name="NMAXFOCKAE">     0</i>
   <i type="logical" name="LFOCKAEDFT"> F  </i>
   <i name="HFSCREEN">      0.00000000</i>
   <i name="HFSCREENC">      0.00000000</i>
   <i type="int" name="NBANDSGWLOW">     0</i>
  </separator>
  <separator name="vdW DFT" >
   <i type="logical" name="LUSE_VDW"> F  </i>
   <i name="Zab_VDW">     -0.84910000</i>
   <i name="PARAM1">      0.12340000</i>
   <i name="PARAM2">      1.00000000</i>
   <i name="PARAM3">      0.00000000</i>
  </separator>
  <separator name="model GW" >
   <i type="int" name="MODEL_GW">     0</i>
   <i name="MODEL_EPS0">     31.96639769</i>
   <i name="MODEL_ALPHA">      1.00000000</i>
  </separator>
  <separator name="linear response parameters" >
   <i type="logical" name="LEPSILON"> F  </i>
   <i type="logical" name="LRPA"> F  </i>
   <i type="logical" name="LNABLA"> F  </i>
   <i type="logical" name="LVEL"> F  </i>
   <i type="int" name="KINTER">     0</i>
   <i name="CSHIFT">      0.10000000</i>
   <i name="OMEGAMAX">     -1.00000000</i>
   <i name="DEG_THRESHOLD">      0.00200000</i>
   <i name="RTIME">     -0.10000000</i>
   <i name="WPLASMAI">      0.00000000</i>
   <v name="DFIELD">      0.00000000      0.00000000      0.00000000</v>
   <v name="WPLASMA">      0.00000000      0.00000000      0.00000000      0.00000000      0.00000000      0.00000000      0.00000000      0.00000000      0.00000000</v>
  </separator>
  <separator name="orbital magnetization" >
   <i type="logical" name="NUCIND"> F  </i>
   <v name="MAGPOS">      0.00000000      0.00000000      0.00000000</v>
   <i type="logical" name="LNICSALL"> T  </i>
   <i type="logical" name="ORBITALMAG"> F  </i>
   <i type="logical" name="LMAGBLOCH"> F  </i>
   <i type="logical" name="LCHIMAG"> F  </i>
   <i type="logical" name="LGAUGE"> T  </i>
   <i type="int" name="MAGATOM">     0</i>
   <v name="MAGDIPOL">      0.00000000      0.00000000      0.00000000</v>
   <v name="AVECCONST">      0.00000000      0.00000000      0.00000000</v>
  </separator>
  <separator name="response functions" >
   <i type="logical" name="LADDER"> F  </i>
   <i type="logical" name="LRPAFORCE"> F  </i>
   <i type="logical" name="LFXC"> F  </i>
   <i type="logical" name="LHARTREE"> T  </i>
   <i type="int" name="IBSE">     0</i>
   <v type="int" name="KPOINT">    -1     0     0     0</v>
   <i type="logical" name="LTCTE"> F  </i>
   <i type="logical" name="LTETE"> F  </i>
   <i type="logical" name="LTRIPLET"> F  </i>
   <i type="logical" name="LFXCEPS"> F  </i>
   <i type="logical" name="LFXHEG"> F  </i>
   <i type="int" name="NATURALO">     2</i>
   <i type="logical" name="L2ORDER"> F  </i>
   <i type="logical" name="LMP2LT"> F  </i>
   <i type="logical" name="LUSEW"> F  </i>
   <i name="ENCUTGW">     -2.00000000</i>
   <i name="ENCUTGWSOFT">     -2.00000000</i>
   <i name="ENCUTLF">     -1.00000000</i>
   <i type="int" name="LMAXMP2">    -1</i>
   <i name="SCISSOR">      0.00000000</i>
   <i type="int" name="NOMEGA">     0</i>
   <i type="int" name="NOMEGAR">     0</i>
   <i type="int" name="NBANDSGW">    -1</i>
   <i type="int" name="NBANDSO">    -1</i>
   <i type="int" name="NBANDSV">    -1</i>
   <i type="int" name="NELM">  1000</i>
   <i type="int" name="NELMHF">     1</i>
   <i type="int" name="DIM">     3</i>
   <i type="int" name="ANTIRES">     0</i>
   <i name="OMEGAMAX">    -30.00000000</i>
   <i name="OMEGAMIN">    -30.00000000</i>
   <i name="OMEGATL">   -200.00000000</i>
   <i type="int" name="OMEGAGRID">   140</i>
   <i name="CSHIFT">     -0.10000000</i>
   <i type="logical" name="SELFENERGY"> F  </i>
   <i type="logical" name="LSPECTRAL"> F  </i>
   <i type="logical" name="LSPECTRALGW"> F  </i>
   <i type="logical" name="LSINGLES"> F  </i>
   <i type="logical" name="LFERMIGW"> F  </i>
   <i type="logical" name="ODDONLYGW"> F  </i>
   <i type="logical" name="EVENONLYGW"> F  </i>
   <i type="int" name="NKREDLFX">     1</i>
   <i type="int" name="NKREDLFY">     1</i>
   <i type="int" name="NKREDLFZ">     1</i>
   <i type="int" name="MAXMEM">  2800</i>
   <i type="int" name="TELESCOPE">     0</i>
   <i type="int" name="TAUPAR">     1</i>
   <i type="int" name="OMEGAPAR">    -1</i>
   <i name="LAMBDA">      1.00000000</i>
  </separator>
  <separator name="External order field" >
   <i name="OFIELD_KAPPA">      0.00000000</i>
   <v name="OFIELD_K">      0.00000000      0.00000000      0.00000000</v>
   <i name="OFIELD_Q6_NEAR">      0.00000000</i>
   <i name="OFIELD_Q6_FAR">      0.00000000</i>
   <i name="OFIELD_A">      0.00000000</i>
  </separator>
 </parameters>
 <atominfo>
  <atoms>      27 </atoms>
  <types>       2 </types>
  <array name="atoms" >
   <dimension dim="1">ion</dimension>
   <field type="string">element</field>
   <field type="int">atomtype</field>
   <set>
    <rc><c>Mo</c><c>   1</c></rc>
    <rc><c>Mo</c><c>   1</c></rc>
    <rc><c>Mo</c><c>   1</c></rc>
    <rc><c>Mo</c><c>   1</c></rc>
    <rc><c>Mo</c><c>   1</c></rc>
    <rc><c>Mo</c><c>   1</c></rc>
    <rc><c>Mo</c><c>   1</c></rc>
    <rc><c>Mo</c><c>   1</c></rc>
    <rc><c>Mo</c><c>   1</c></rc>
    <rc><c>S </c><c>   2</c></rc>
    <rc><c>S </c><c>   2</c></rc>
    <rc><c>S </c><c>   2</c></rc>
    <rc><c>S </c><c>   2</c></rc>
    <rc><c>S </c><c>   2</c></rc>
    <rc><c>S </c><c>   2</c></rc>
    <rc><c>S </c><c>   2</c></rc>
    <rc><c>S </c><c>   2</c></rc>
    <rc><c>S </c><c>   2</c></rc>
    <rc><c>S </c><c>   2</c></rc>
    <rc><c>S </c><c>   2</c></rc>
    <rc><c>S </c><c>   2</c></rc>
    <rc><c>S </c><c>   2</c></rc>
    <rc><c>S </c><c>   2</c></rc>
    <rc><c>S </c><c>   2</c></rc>
    <rc><c>S </c><c>   2</c></rc>
    <rc><c>S </c><c>   2</c></rc>
    <rc><c>S </c><c>   2</c></rc>
   </set>
  </array>
  <array name="atomtypes" >
   <dimension dim="1">type</dimension>
   <field type="int">atomspertype</field>
   <field type="string">element</field>
   <field>mass</field>
   <field>valence</field>
   <field type="string">pseudopotential</field>
   <set>
    <rc><c>   9</c><c>Mo</c><c>     95.94000000</c><c>     14.00000000</c><c>  PAW_PBE Mo_sv 02Feb2006               </c></rc>
    <rc><c>  18</c><c>S </c><c>     32.06600000</c><c>      6.00000000</c><c>  PAW_PBE S 06Sep2000                   </c></rc>
   </set>
  </array>
 </atominfo>
 <structure name="initialpos" >
  <crystal>
   <varray name="basis" >
    <v>       9.56424100       0.00000000       0.00000000 </v>
    <v>      -4.78212000       8.28287600       0.00000000 </v>
    <v>      -0.00000000       0.00000000      18.15827300 </v>
   </varray>
   <i name="volume">   1438.48789588 </i>
   <varray name="rec_basis" >
    <v>       0.10455613       0.06036550       0.00000000 </v>
    <v>       0.00000000       0.12073101      -0.00000000 </v>
    <v>       0.00000000      -0.00000000       0.05507132 </v>
   </varray>
  </crystal>
  <varray name="positions" >
   <v>       0.04033657       0.01692807       0.49288853 </v>
   <v>       0.31929510       0.34932777       0.49916487 </v>
   <v>       0.65153331       0.01745394       0.50081579 </v>
   <v>       0.32456177       0.96676844       0.49903955 </v>
   <v>       0.37179809       0.68886637       0.50421038 </v>
   <v>       0.69756621       0.35197245       0.49938548 </v>
   <v>       0.96514287       0.29332474       0.49715467 </v>
   <v>       0.64124893       0.62375526       0.49977882 </v>
   <v>       0.98738183       0.69153946       0.50027325 </v>
   <v>       0.54905319       0.11461130       0.58525986 </v>
   <v>       0.21868905       0.11412394       0.58813586 </v>
   <v>       0.11417672       0.23900861       0.40771729 </v>
   <v>       0.21201840       0.45114861       0.58697492 </v>
   <v>       0.11019193       0.55474786       0.42985432 </v>
   <v>       0.22466584       0.77507977       0.58772758 </v>
   <v>       0.12497125       0.89129002       0.40142276 </v>
   <v>       0.43828533       0.22906896       0.42800046 </v>
   <v>       0.45351667       0.89108031       0.41272799 </v>
   <v>       0.55119223       0.42369778       0.59502745 </v>
   <v>       0.56775664       0.77219456       0.59208272 </v>
   <v>       0.44429686       0.55793398       0.41066804 </v>
   <v>       0.89281111       0.10003281       0.58382721 </v>
   <v>       0.76518029       0.22106886       0.40788506 </v>
   <v>       0.89636755       0.45264047       0.58308916 </v>
   <v>       0.77412039       0.55262771       0.40974031 </v>
   <v>       0.88241966       0.78410738       0.58364496 </v>
   <v>       0.78368373       0.87572707       0.42802143 </v>
  </varray>
 </structure>
 <calculation>
  <scstep>
   <time name="dav">   84.13   84.62</time>
   <time name="total">   84.70   85.21</time>
   <energy>
    <i name="alphaZ">    266.37941352 </i>
    <i name="ewald">  40362.02347691 </i>
    <i name="hartreedc"> -59420.37459009 </i>
    <i name="XCdc">    822.17336485 </i>
    <i name="pawpsdc">  17395.10119161 </i>
    <i name="pawaedc"> -17171.31696658 </i>
    <i name="eentropy">     -0.01569360 </i>
    <i name="bandstr">  -1773.34604664 </i>
    <i name="atom">  21743.34108040 </i>
    <i name="e_fr_energy">   2223.96523036 </i>
    <i name="e_wo_entrp">   2223.98092396 </i>
    <i name="e_0_energy">   2223.97307716 </i>
   </energy>
  </scstep>
  <scstep>
   <time name="dav">   90.45   90.95</time>
   <time name="total">   90.45   90.96</time>
   <energy>
    <i name="e_fr_energy">     14.79798281 </i>
    <i name="e_wo_entrp">     14.79974535 </i>
    <i name="e_0_energy">     14.79886408 </i>
   </energy>
  </scstep>
  <scstep>
   <time name="dav">   79.44   79.88</time>
   <time name="total">   79.44   79.88</time>
   <energy>
    <i name="e_fr_energy">   -194.93459807 </i>
    <i name="e_wo_entrp">   -194.93459807 </i>
    <i name="e_0_energy">   -194.93459807 </i>
   </energy>
  </scstep>
  <scstep>
   <time name="dav">   87.86   88.32</time>
   <time name="total">   87.86   88.32</time>
   <energy>
    <i name="e_fr_energy">   -203.34264713 </i>
    <i name="e_wo_entrp">   -203.34264713 </i>
    <i name="e_0_energy">   -203.34264713 </i>
   </energy>
  </scstep>
  <scstep>
   <time name="dav">   93.10   93.57</time>
   <time name="total">   99.52  100.02</time>
   <energy>
    <i name="e_fr_energy">   -203.61651461 </i>
    <i name="e_wo_entrp">   -203.61651461 </i>
    <i name="e_0_energy">   -203.61651461 </i>
   </energy>
  </scstep>
  <scstep>
   <time name="dav">   78.44   78.85</time>
   <time name="total">   85.47   85.91</time>
   <energy>
    <i name="e_fr_energy">   -194.37510401 </i>
    <i name="e_wo_entrp">   -194.37510401 </i>
    <i name="e_0_energy">   -194.37510401 </i>
   </energy>
  </scstep>
  <scstep>
   <time name="dav">   75.79   76.18</time>
   <time name="total">   82.74   83.16</time>
   <energy>
    <i name="e_fr_energy">   -193.14878998 </i>
    <i name="e_wo_entrp">   -193.14878998 </i>
    <i name="e_0_energy">   -193.14878998 </i>
   </energy>
  </scstep>
  <scstep>
   <time name="dav">   78.59   79.01</time>
   <time name="total">   85.53   85.97</time>
   <energy>
    <i name="e_fr_energy">   -190.58219251 </i>
    <i name="e_wo_entrp">   -190.58219251 </i>
    <i name="e_0_energy">   -190.58219251 </i>
   </energy>
  </scstep>
  <scstep>
   <time name="dav">   88.10   88.62</time>
   <time name="total">   95.02   95.57</time>
   <energy>
    <i name="e_fr_energy">   -190.47801491 </i>
    <i name="e_wo_entrp">   -190.47801491 </i>
    <i name="e_0_energy">   -190.47801491 </i>
   </energy>
  </scstep>
  <scstep>
   <time name="dav">   81.44   81.92</time>
   <time name="total">   88.37   88.88</time>
   <energy>
    <i name="e_fr_energy">   -190.38103758 </i>
    <i name="e_wo_entrp">   -190.38103758 </i>
    <i name="e_0_energy">   -190.38103758 </i>
   </energy>
  </scstep>
  <scstep>
   <time name="dav">   86.76   87.27</time>
   <time name="total">   93.58   94.12</time>
   <energy>
    <i name="e_fr_energy">   -190.35599233 </i>
    <i name="e_wo_entrp">   -190.35599233 </i>
    <i name="e_0_energy">   -190.35599233 </i>
   </energy>
  </scstep>
  <scstep>
   <time name="dav">   80.60   81.06</time>
   <time name="total">   87.43   87.93</time>
   <energy>
    <i name="e_fr_energy">   -190.34956447 </i>
    <i name="e_wo_entrp">   -190.34956447 </i>
    <i name="e_0_energy">   -190.34956447 </i>
   </energy>
  </scstep>
  <scstep>
   <time name="dav">   78.82   79.27</time>
   <time name="total">   85.62   86.11</time>
   <energy>
    <i name="e_fr_energy">   -190.34114410 </i>
    <i name="e_wo_entrp">   -190.34114410 </i>
    <i name="e_0_energy">   -190.34114410 </i>
   </energy>
  </scstep>
  <scstep>
   <time name="dav">   86.47   86.97</time>
   <time name="total">   93.25   93.77</time>
   <energy>
    <i name="e_fr_energy">   -190.34037525 </i>
    <i name="e_wo_entrp">   -190.34037525 </i>
    <i name="e_0_energy">   -190.34037525 </i>
   </energy>
  </scstep>
  <scstep>
   <time name="dav">   84.05   84.53</time>
   <time name="total">   90.81   91.32</time>
   <energy>
    <i name="e_fr_energy">   -190.33992556 </i>
    <i name="e_wo_entrp">   -190.33992556 </i>
    <i name="e_0_energy">   -190.33992556 </i>
   </energy>
  </scstep>
  <scstep>
   <time name="dav">   78.87   79.33</time>
   <time name="total">   85.60   86.08</time>
   <energy>
    <i name="e_fr_energy">   -190.33969611 </i>
    <i name="e_wo_entrp">   -190.33969611 </i>
    <i name="e_0_energy">   -190.33969611 </i>
   </energy>
  </scstep>
  <scstep>
   <time name="dav">   80.75   81.22</time>
   <time name="total">   87.46   87.96</time>
   <energy>
    <i name="e_fr_energy">   -190.33989710 </i>
    <i name="e_wo_entrp">   -190.33989710 </i>
    <i name="e_0_energy">   -190.33989710 </i>
   </energy>
  </scstep>
  <scstep>
   <time name="dav">   82.90   83.39</time>
   <time name="total">   89.62   90.14</time>
   <energy>
    <i name="e_fr_energy">   -190.34038911 </i>
    <i name="e_wo_entrp">   -190.34038911 </i>
    <i name="e_0_energy">   -190.34038911 </i>
   </energy>
  </scstep>
  <scstep>
   <time name="dav">   78.98   79.45</time>
   <time name="total">   85.74   86.23</time>
   <energy>
    <i name="e_fr_energy">   -190.34081133 </i>
    <i name="e_wo_entrp">   -190.34081133 </i>
    <i name="e_0_energy">   -190.34081133 </i>
   </energy>
  </scstep>
  <scstep>
   <time name="dav">   79.84   80.29</time>
   <time name="total">   86.60   87.09</time>
   <energy>
    <i name="e_fr_energy">   -190.34110707 </i>
    <i name="e_wo_entrp">   -190.34110707 </i>
    <i name="e_0_energy">   -190.34110707 </i>
   </energy>
  </scstep>
  <scstep>
   <time name="dav">   83.15   83.63</time>
   <time name="total">   89.87   90.38</time>
   <energy>
    <i name="e_fr_energy">   -190.34123070 </i>
    <i name="e_wo_entrp">   -190.34123070 </i>
    <i name="e_0_energy">   -190.34123070 </i>
   </energy>
  </scstep>
  <scstep>
   <time name="dav">   74.43   74.87</time>
   <time name="total">   81.16   81.62</time>
   <energy>
    <i name="e_fr_energy">   -190.34134409 </i>
    <i name="e_wo_entrp">   -190.34134409 </i>
    <i name="e_0_energy">   -190.34134409 </i>
   </energy>
  </scstep>
  <scstep>
   <time name="dav">   68.85   69.25</time>
   <time name="total">   75.58   76.01</time>
   <energy>
    <i name="e_fr_energy">   -190.34144562 </i>
    <i name="e_wo_entrp">   -190.34144562 </i>
    <i name="e_0_energy">   -190.34144562 </i>
   </energy>
  </scstep>
  <scstep>
   <time name="dav">   67.13   67.51</time>
   <time name="total">   73.86   74.28</time>
   <energy>
    <i name="e_fr_energy">   -190.34153376 </i>
    <i name="e_wo_entrp">   -190.34153376 </i>
    <i name="e_0_energy">   -190.34153376 </i>
   </energy>
  </scstep>
  <scstep>
   <time name="dav">   59.18   59.53</time>
   <time name="total">   65.94   66.31</time>
   <energy>
    <i name="e_fr_energy">   -190.34163618 </i>
    <i name="e_wo_entrp">   -190.34163618 </i>
    <i name="e_0_energy">   -190.34163618 </i>
   </energy>
  </scstep>
  <scstep>
   <time name="dav">   61.85   62.21</time>
   <time name="total">   68.59   68.98</time>
   <energy>
    <i name="e_fr_energy">   -190.34172368 </i>
    <i name="e_wo_entrp">   -190.34172368 </i>
    <i name="e_0_energy">   -190.34172368 </i>
   </energy>
  </scstep>
  <scstep>
   <time name="dav">   60.61   60.95</time>
   <time name="total">   67.36   67.73</time>
   <energy>
    <i name="e_fr_energy">   -190.34178209 </i>
    <i name="e_wo_entrp">   -190.34178209 </i>
    <i name="e_0_energy">   -190.34178209 </i>
   </energy>
  </scstep>
  <scstep>
   <time name="dav">   57.90   58.23</time>
   <time name="total">   64.61   64.97</time>
   <energy>
    <i name="e_fr_energy">   -190.34180652 </i>
    <i name="e_wo_entrp">   -190.34180652 </i>
    <i name="e_0_energy">   -190.34180652 </i>
   </energy>
  </scstep>
  <scstep>
   <time name="dav">   57.72   58.05</time>
   <time name="total">   64.45   64.80</time>
   <energy>
    <i name="e_fr_energy">   -190.34182405 </i>
    <i name="e_wo_entrp">   -190.34182405 </i>
    <i name="e_0_energy">   -190.34182405 </i>
   </energy>
  </scstep>
  <scstep>
   <time name="dav">   53.82   54.12</time>
   <time name="total">   60.57   60.90</time>
   <energy>
    <i name="e_fr_energy">   -190.34183329 </i>
    <i name="e_wo_entrp">   -190.34183329 </i>
    <i name="e_0_energy">   -190.34183329 </i>
   </energy>
  </scstep>
  <scstep>
   <time name="dav">   52.01   52.31</time>
   <time name="total">   58.85   59.18</time>
   <energy>
    <i name="e_fr_energy">   -190.34183878 </i>
    <i name="e_wo_entrp">   -190.34183878 </i>
    <i name="e_0_energy">   -190.34183878 </i>
   </energy>
  </scstep>
  <scstep>
   <time name="dav">   46.08   46.35</time>
   <time name="total">   52.94   53.24</time>
   <energy>
    <i name="e_fr_energy">   -190.34184064 </i>
    <i name="e_wo_entrp">   -190.34184064 </i>
    <i name="e_0_energy">   -190.34184064 </i>
   </energy>
  </scstep>
  <scstep>
   <time name="dav">   45.50   45.76</time>
   <time name="total">   46.04   46.30</time>
   <energy>
    <i name="alphaZ">    266.37941352 </i>
    <i name="ewald">  40362.02347691 </i>
    <i name="hartreedc"> -59402.48149243 </i>
    <i name="XCdc">    817.50653138 </i>
    <i name="pawpsdc">  26456.11804279 </i>
    <i name="pawaedc"> -26266.85760526 </i>
    <i name="eentropy">     -0.00000000 </i>
    <i name="bandstr">  -4166.37128861 </i>
    <i name="atom">  21743.34108040 </i>
    <i name="e_fr_energy">   -190.34184131 </i>
    <i name="e_wo_entrp">   -190.34184131 </i>
    <i name="e_0_energy">   -190.34184131 </i>
   </energy>
  </scstep>
  <structure>
   <crystal>
    <varray name="basis" >
     <v>       9.56424100       0.00000000       0.00000000 </v>
     <v>      -4.78212000       8.28287600       0.00000000 </v>
     <v>      -0.00000000       0.00000000      18.15827300 </v>
    </varray>
    <i name="volume">   1438.48789588 </i>
    <varray name="rec_basis" >
     <v>       0.10455613       0.06036550       0.00000000 </v>
     <v>       0.00000000       0.12073101      -0.00000000 </v>
     <v>       0.00000000      -0.00000000       0.05507132 </v>
    </varray>
   </crystal>
   <varray name="positions" >
    <v>       0.04033657       0.01692807       0.49288853 </v>
    <v>       0.31929510       0.34932777       0.49916487 </v>
    <v>       0.65153331       0.01745394       0.50081579 </v>
    <v>       0.32456177       0.96676844       0.49903955 </v>
    <v>       0.37179809       0.68886637       0.50421038 </v>
    <v>       0.69756621       0.35197245       0.49938548 </v>
    <v>       0.96514287       0.29332474       0.49715467 </v>
    <v>       0.64124893       0.62375526       0.49977882 </v>
    <v>       0.98738183       0.69153946       0.50027325 </v>
    <v>       0.54905319       0.11461130       0.58525986 </v>
    <v>       0.21868905       0.11412394       0.58813586 </v>
    <v>       0.11417672       0.23900861       0.40771729 </v>
    <v>       0.21201840       0.45114861       0.58697492 </v>
    <v>       0.11019193       0.55474786       0.42985432 </v>
    <v>       0.22466584       0.77507977       0.58772758 </v>
    <v>       0.12497125       0.89129002       0.40142276 </v>
    <v>       0.43828533       0.22906896       0.42800046 </v>
    <v>       0.45351667       0.89108031       0.41272799 </v>
    <v>       0.55119223       0.42369778       0.59502745 </v>
    <v>       0.56775664       0.77219456       0.59208272 </v>
    <v>       0.44429686       0.55793398       0.41066804 </v>
    <v>       0.89281111       0.10003281       0.58382721 </v>
    <v>       0.76518029       0.22106886       0.40788506 </v>
    <v>       0.89636755       0.45264047       0.58308916 </v>
    <v>       0.77412039       0.55262771       0.40974031 </v>
    <v>       0.88241966       0.78410738       0.58364496 </v>
    <v>       0.78368373       0.87572707       0.42802143 </v>
   </varray>
  </structure>
  <varray name="forces" >
   <v>      -0.44515666      -0.04536328       0.03303781 </v>
   <v>      -0.85063344       0.66415619       1.37683640 </v>
   <v>       1.00379724      -0.34604708       0.28732817 </v>
   <v>      -1.16035789       0.65776471      -0.24967803 </v>
   <v>      -0.32633910      -1.09550018      -0.43067154 </v>
   <v>      -0.51898405      -0.35641147      -0.13566398 </v>
   <v>       1.35843816       1.36826624       0.17481494 </v>
   <v>       0.73656619       0.30087490       1.11496767 </v>
   <v>       0.78845088      -0.76611852      -1.58978532 </v>
   <v>      -0.13441516       0.19294460       0.61213773 </v>
   <v>       0.76795607      -0.13998983      -0.48301645 </v>
   <v>      -0.00339913      -0.76944464      -0.32879097 </v>
   <v>       0.28685396      -0.41953859      -0.35286492 </v>
   <v>       0.07722062       0.30669789       0.53413317 </v>
   <v>      -0.38552094      -0.45023835       0.23329033 </v>
   <v>      -0.28481541      -0.15574840       1.09111754 </v>
   <v>       0.84469940      -0.75629477       0.29640358 </v>
   <v>      -0.12645222      -0.43786128      -1.26410331 </v>
   <v>      -0.54263592       0.58405176      -1.34478046 </v>
   <v>      -0.11003207       0.59873203      -0.37199827 </v>
   <v>      -0.32207452       0.11921706      -0.39383827 </v>
   <v>      -0.57889971      -0.34473701       0.27679575 </v>
   <v>       0.19490847      -0.46786551      -0.57004138 </v>
   <v>       0.66688276       0.15420929       0.85671939 </v>
   <v>       0.26324337       0.36608159      -0.26198870 </v>
   <v>      -0.15612790       0.55322896       0.50107692 </v>
   <v>      -1.04317301       0.68493371       0.38856220 </v>
  </varray>
  <varray name="stress" >
   <v>      16.37146703       0.46469237       0.31245032 </v>
   <v>       0.46469236      14.40434998       3.37608968 </v>
   <v>       0.31245049       3.37608958       0.34052627 </v>
  </varray>
  <energy>
   <i name="e_fr_energy">   -190.34184131 </i>
   <i name="e_wo_entrp">   -190.34184131 </i>
   <i name="e_0_energy">     -0.00000000 </i>
  </energy>
  <time name="totalsc"> 2758.17 2773.54</time>
  <eigenvalues>
   <array>
    <dimension dim="1">band</dimension>
    <dimension dim="2">kpoint</dimension>
    <dimension dim="3">spin</dimension>
    <field>eigene</field>
    <field>occ</field>
    <set>
     <set comment="spin 1">
      <set comment="kpoint 1">
       <r>  -62.5572    1.0000 </r>
       <r>  -62.4796    1.0000 </r>
       <r>  -62.4553    1.0000 </r>
       <r>  -62.4318    1.0000 </r>
       <r>  -62.4224    1.0000 </r>
       <r>  -62.4065    1.0000 </r>
       <r>  -62.3940    1.0000 </r>
       <r>  -62.3800    1.0000 </r>
       <r>  -62.3517    1.0000 </r>
       <r>  -36.9312    1.0000 </r>
       <r>  -36.8581    1.0000 </r>
       <r>  -36.8354    1.0000 </r>
       <r>  -36.8135    1.0000 </r>
       <r>  -36.7962    1.0000 </r>
       <r>  -36.7830    1.0000 </r>
       <r>  -36.7718    1.0000 </r>
       <r>  -36.7350    1.0000 </r>
       <r>  -36.6955    1.0000 </r>
       <r>  -36.6423    1.0000 </r>
       <r>  -36.5847    1.0000 </r>
       <r>  -36.5685    1.0000 </r>
       <r>  -36.5489    1.0000 </r>
       <r>  -36.5306    1.0000 </r>
       <r>  -36.4980    1.0000 </r>
       <r>  -36.4842    1.0000 </r>
       <r>  -36.4805    1.0000 </r>
       <r>  -36.4655    1.0000 </r>
       <r>  -36.4482    1.0000 </r>
       <r>  -36.4359    1.0000 </r>
       <r>  -36.4226    1.0000 </r>
       <r>  -36.4163    1.0000 </r>
       <r>  -36.4099    1.0000 </r>
       <r>  -36.3935    1.0000 </r>
       <r>  -36.3825    1.0000 </r>
       <r>  -36.3258    1.0000 </r>
       <r>  -36.3013    1.0000 </r>
       <r>  -15.6194    1.0000 </r>
       <r>  -14.5693    1.0000 </r>
       <r>  -14.5200    1.0000 </r>
       <r>  -14.4487    1.0000 </r>
       <r>  -14.4155    1.0000 </r>
       <r>  -14.3776    1.0000 </r>
       <r>  -14.3326    1.0000 </r>
       <r>  -14.1980    1.0000 </r>
       <r>  -14.0507    1.0000 </r>
       <r>  -13.9978    1.0000 </r>
       <r>  -13.9669    1.0000 </r>
       <r>  -13.8823    1.0000 </r>
       <r>  -13.6979    1.0000 </r>
       <r>  -13.5350    1.0000 </r>
       <r>  -13.4915    1.0000 </r>
       <r>  -13.4649    1.0000 </r>
       <r>  -13.2975    1.0000 </r>
       <r>  -12.9554    1.0000 </r>
       <r>   -7.0900    1.0000 </r>
       <r>   -6.8171    1.0000 </r>
       <r>   -6.7599    1.0000 </r>
       <r>   -6.7395    1.0000 </r>
       <r>   -6.7292    1.0000 </r>
       <r>   -6.6394    1.0000 </r>
       <r>   -6.5341    1.0000 </r>
       <r>   -6.5056    1.0000 </r>
       <r>   -6.4558    1.0000 </r>
       <r>   -6.4333    1.0000 </r>
       <r>   -6.3970    1.0000 </r>
       <r>   -6.3725    1.0000 </r>
       <r>   -6.3170    1.0000 </r>
       <r>   -6.2551    1.0000 </r>
       <r>   -6.1865    1.0000 </r>
       <r>   -6.0705    1.0000 </r>
       <r>   -6.0387    1.0000 </r>
       <r>   -5.9182    1.0000 </r>
       <r>   -5.8578    1.0000 </r>
       <r>   -5.4261    1.0000 </r>
       <r>   -5.3887    1.0000 </r>
       <r>   -5.3492    1.0000 </r>
       <r>   -5.2747    1.0000 </r>
       <r>   -5.0656    1.0000 </r>
       <r>   -5.0456    1.0000 </r>
       <r>   -4.9196    1.0000 </r>
       <r>   -4.7621    1.0000 </r>
       <r>   -4.7149    1.0000 </r>
       <r>   -4.6797    1.0000 </r>
       <r>   -4.6245    1.0000 </r>
       <r>   -4.5644    1.0000 </r>
       <r>   -4.5387    1.0000 </r>
       <r>   -4.4552    1.0000 </r>
       <r>   -4.4352    1.0000 </r>
       <r>   -4.3362    1.0000 </r>
       <r>   -4.2727    1.0000 </r>
       <r>   -4.2138    1.0000 </r>
       <r>   -4.1719    1.0000 </r>
       <r>   -4.1476    1.0000 </r>
       <r>   -3.7497    1.0000 </r>
       <r>   -3.7132    1.0000 </r>
       <r>   -3.6390    1.0000 </r>
       <r>   -3.6085    1.0000 </r>
       <r>   -3.5302    1.0000 </r>
       <r>   -3.4269    1.0000 </r>
       <r>   -3.2414    1.0000 </r>
       <r>   -3.1354    1.0000 </r>
       <r>   -2.9661    1.0000 </r>
       <r>   -2.9209    1.0000 </r>
       <r>   -2.8861    1.0000 </r>
       <r>   -2.7975    1.0000 </r>
       <r>   -2.7418    1.0000 </r>
       <r>   -2.5215    1.0000 </r>
       <r>   -2.4758    1.0000 </r>
       <r>   -2.3803    1.0000 </r>
       <r>   -2.2268    1.0000 </r>
       <r>   -2.0624    1.0000 </r>
       <r>   -1.9640    1.0000 </r>
       <r>   -1.9413    1.0000 </r>
       <r>   -1.8913    1.0000 </r>
       <r>   -1.7148    1.0000 </r>
       <r>   -1.5098    1.0000 </r>
       <r>   -1.3680    1.0000 </r>
       <r>   -0.7266    0.0000 </r>
       <r>   -0.3377    0.0000 </r>
       <r>   -0.2987    0.0000 </r>
       <r>   -0.1606    0.0000 </r>
       <r>   -0.1345    0.0000 </r>
       <r>   -0.0303    0.0000 </r>
       <r>    0.0110    0.0000 </r>
       <r>    0.0548    0.0000 </r>
       <r>    0.0911    0.0000 </r>
       <r>    0.2497    0.0000 </r>
       <r>    0.6358    0.0000 </r>
       <r>    0.7317    0.0000 </r>
       <r>    0.8107    0.0000 </r>
       <r>    0.8413    0.0000 </r>
       <r>    0.8989    0.0000 </r>
       <r>    0.9812    0.0000 </r>
       <r>    1.1370    0.0000 </r>
       <r>    1.1671    0.0000 </r>
       <r>    1.3726    0.0000 </r>
       <r>    1.7650    0.0000 </r>
       <r>    1.8487    0.0000 </r>
       <r>    1.8586    0.0000 </r>
       <r>    1.9481    0.0000 </r>
      </set>
      <set comment="kpoint 2">
       <r>  -62.5571    1.0000 </r>
       <r>  -62.4794    1.0000 </r>
       <r>  -62.4559    1.0000 </r>
       <r>  -62.4315    1.0000 </r>
       <r>  -62.4226    1.0000 </r>
       <r>  -62.4058    1.0000 </r>
       <r>  -62.3942    1.0000 </r>
       <r>  -62.3801    1.0000 </r>
       <r>  -62.3517    1.0000 </r>
       <r>  -36.9316    1.0000 </r>
       <r>  -36.8786    1.0000 </r>
       <r>  -36.8499    1.0000 </r>
       <r>  -36.8110    1.0000 </r>
       <r>  -36.7896    1.0000 </r>
       <r>  -36.7725    1.0000 </r>
       <r>  -36.7577    1.0000 </r>
       <r>  -36.7228    1.0000 </r>
       <r>  -36.6877    1.0000 </r>
       <r>  -36.6390    1.0000 </r>
       <r>  -36.5866    1.0000 </r>
       <r>  -36.5720    1.0000 </r>
       <r>  -36.5565    1.0000 </r>
       <r>  -36.5312    1.0000 </r>
       <r>  -36.5053    1.0000 </r>
       <r>  -36.4892    1.0000 </r>
       <r>  -36.4798    1.0000 </r>
       <r>  -36.4650    1.0000 </r>
       <r>  -36.4479    1.0000 </r>
       <r>  -36.4388    1.0000 </r>
       <r>  -36.4335    1.0000 </r>
       <r>  -36.4127    1.0000 </r>
       <r>  -36.4030    1.0000 </r>
       <r>  -36.3871    1.0000 </r>
       <r>  -36.3767    1.0000 </r>
       <r>  -36.3301    1.0000 </r>
       <r>  -36.3030    1.0000 </r>
       <r>  -15.5731    1.0000 </r>
       <r>  -14.6735    1.0000 </r>
       <r>  -14.5733    1.0000 </r>
       <r>  -14.5078    1.0000 </r>
       <r>  -14.4740    1.0000 </r>
       <r>  -14.3230    1.0000 </r>
       <r>  -14.2532    1.0000 </r>
       <r>  -14.1513    1.0000 </r>
       <r>  -14.0805    1.0000 </r>
       <r>  -14.0157    1.0000 </r>
       <r>  -13.9095    1.0000 </r>
       <r>  -13.8314    1.0000 </r>
       <r>  -13.7278    1.0000 </r>
       <r>  -13.5682    1.0000 </r>
       <r>  -13.4981    1.0000 </r>
       <r>  -13.4051    1.0000 </r>
       <r>  -13.2651    1.0000 </r>
       <r>  -12.9666    1.0000 </r>
       <r>   -7.1428    1.0000 </r>
       <r>   -7.0234    1.0000 </r>
       <r>   -6.8852    1.0000 </r>
       <r>   -6.8524    1.0000 </r>
       <r>   -6.8281    1.0000 </r>
       <r>   -6.7639    1.0000 </r>
       <r>   -6.6294    1.0000 </r>
       <r>   -6.5482    1.0000 </r>
       <r>   -6.4506    1.0000 </r>
       <r>   -6.4339    1.0000 </r>
       <r>   -6.3486    1.0000 </r>
       <r>   -6.2331    1.0000 </r>
       <r>   -6.1439    1.0000 </r>
       <r>   -6.0877    1.0000 </r>
       <r>   -5.9974    1.0000 </r>
       <r>   -5.9257    1.0000 </r>
       <r>   -5.8241    1.0000 </r>
       <r>   -5.7561    1.0000 </r>
       <r>   -5.6803    1.0000 </r>
       <r>   -5.5955    1.0000 </r>
       <r>   -5.5445    1.0000 </r>
       <r>   -5.2951    1.0000 </r>
       <r>   -5.1998    1.0000 </r>
       <r>   -5.1217    1.0000 </r>
       <r>   -5.0554    1.0000 </r>
       <r>   -5.0250    1.0000 </r>
       <r>   -4.9388    1.0000 </r>
       <r>   -4.8357    1.0000 </r>
       <r>   -4.7222    1.0000 </r>
       <r>   -4.6650    1.0000 </r>
       <r>   -4.6013    1.0000 </r>
       <r>   -4.4999    1.0000 </r>
       <r>   -4.4469    1.0000 </r>
       <r>   -4.3611    1.0000 </r>
       <r>   -4.3005    1.0000 </r>
       <r>   -4.2564    1.0000 </r>
       <r>   -4.1758    1.0000 </r>
       <r>   -4.1276    1.0000 </r>
       <r>   -4.0492    1.0000 </r>
       <r>   -3.7848    1.0000 </r>
       <r>   -3.7593    1.0000 </r>
       <r>   -3.6843    1.0000 </r>
       <r>   -3.6270    1.0000 </r>
       <r>   -3.5584    1.0000 </r>
       <r>   -3.4820    1.0000 </r>
       <r>   -3.2063    1.0000 </r>
       <r>   -3.1837    1.0000 </r>
       <r>   -3.0395    1.0000 </r>
       <r>   -2.8674    1.0000 </r>
       <r>   -2.8099    1.0000 </r>
       <r>   -2.7316    1.0000 </r>
       <r>   -2.6772    1.0000 </r>
       <r>   -2.5329    1.0000 </r>
       <r>   -2.3907    1.0000 </r>
       <r>   -2.3083    1.0000 </r>
       <r>   -2.2019    1.0000 </r>
       <r>   -2.1070    1.0000 </r>
       <r>   -2.0474    1.0000 </r>
       <r>   -1.9279    1.0000 </r>
       <r>   -1.8728    1.0000 </r>
       <r>   -1.7831    1.0000 </r>
       <r>   -1.5958    1.0000 </r>
       <r>   -1.4148    1.0000 </r>
       <r>   -0.7289    0.0000 </r>
       <r>   -0.3421    0.0000 </r>
       <r>   -0.2665    0.0000 </r>
       <r>   -0.2266    0.0000 </r>
       <r>   -0.1195    0.0000 </r>
       <r>   -0.0498    0.0000 </r>
       <r>   -0.0017    0.0000 </r>
       <r>    0.0665    0.0000 </r>
       <r>    0.1784    0.0000 </r>
       <r>    0.2958    0.0000 </r>
       <r>    0.5727    0.0000 </r>
       <r>    0.6713    0.0000 </r>
       <r>    0.8450    0.0000 </r>
       <r>    0.8854    0.0000 </r>
       <r>    1.0008    0.0000 </r>
       <r>    1.0402    0.0000 </r>
       <r>    1.1567    0.0000 </r>
       <r>    1.2076    0.0000 </r>
       <r>    1.3720    0.0000 </r>
       <r>    1.4934    0.0000 </r>
       <r>    1.6109    0.0000 </r>
       <r>    1.7427    0.0000 </r>
       <r>    1.8857    0.0000 </r>
      </set>
      <set comment="kpoint 3">
       <r>  -62.5570    1.0000 </r>
       <r>  -62.4790    1.0000 </r>
       <r>  -62.4570    1.0000 </r>
       <r>  -62.4311    1.0000 </r>
       <r>  -62.4231    1.0000 </r>
       <r>  -62.4043    1.0000 </r>
       <r>  -62.3949    1.0000 </r>
       <r>  -62.3801    1.0000 </r>
       <r>  -62.3518    1.0000 </r>
       <r>  -36.9297    1.0000 </r>
       <r>  -36.9039    1.0000 </r>
       <r>  -36.8764    1.0000 </r>
       <r>  -36.8063    1.0000 </r>
       <r>  -36.7837    1.0000 </r>
       <r>  -36.7582    1.0000 </r>
       <r>  -36.7353    1.0000 </r>
       <r>  -36.6945    1.0000 </r>
       <r>  -36.6710    1.0000 </r>
       <r>  -36.6303    1.0000 </r>
       <r>  -36.6004    1.0000 </r>
       <r>  -36.5804    1.0000 </r>
       <r>  -36.5685    1.0000 </r>
       <r>  -36.5343    1.0000 </r>
       <r>  -36.5167    1.0000 </r>
       <r>  -36.4939    1.0000 </r>
       <r>  -36.4822    1.0000 </r>
       <r>  -36.4656    1.0000 </r>
       <r>  -36.4493    1.0000 </r>
       <r>  -36.4425    1.0000 </r>
       <r>  -36.4379    1.0000 </r>
       <r>  -36.4123    1.0000 </r>
       <r>  -36.3960    1.0000 </r>
       <r>  -36.3787    1.0000 </r>
       <r>  -36.3667    1.0000 </r>
       <r>  -36.3383    1.0000 </r>
       <r>  -36.3060    1.0000 </r>
       <r>  -15.4378    1.0000 </r>
       <r>  -14.9512    1.0000 </r>
       <r>  -14.6329    1.0000 </r>
       <r>  -14.5390    1.0000 </r>
       <r>  -14.4718    1.0000 </r>
       <r>  -14.3237    1.0000 </r>
       <r>  -14.1565    1.0000 </r>
       <r>  -14.1248    1.0000 </r>
       <r>  -14.0760    1.0000 </r>
       <r>  -13.9696    1.0000 </r>
       <r>  -13.8664    1.0000 </r>
       <r>  -13.8283    1.0000 </r>
       <r>  -13.7267    1.0000 </r>
       <r>  -13.6422    1.0000 </r>
       <r>  -13.5199    1.0000 </r>
       <r>  -13.2915    1.0000 </r>
       <r>  -13.1919    1.0000 </r>
       <r>  -12.9985    1.0000 </r>
       <r>   -7.4985    1.0000 </r>
       <r>   -7.0819    1.0000 </r>
       <r>   -7.0456    1.0000 </r>
       <r>   -6.9891    1.0000 </r>
       <r>   -6.9410    1.0000 </r>
       <r>   -6.8297    1.0000 </r>
       <r>   -6.5743    1.0000 </r>
       <r>   -6.4693    1.0000 </r>
       <r>   -6.3815    1.0000 </r>
       <r>   -6.3474    1.0000 </r>
       <r>   -6.2250    1.0000 </r>
       <r>   -6.2034    1.0000 </r>
       <r>   -6.1721    1.0000 </r>
       <r>   -5.9737    1.0000 </r>
       <r>   -5.8864    1.0000 </r>
       <r>   -5.8250    1.0000 </r>
       <r>   -5.7384    1.0000 </r>
       <r>   -5.6483    1.0000 </r>
       <r>   -5.5513    1.0000 </r>
       <r>   -5.3540    1.0000 </r>
       <r>   -5.3278    1.0000 </r>
       <r>   -5.2832    1.0000 </r>
       <r>   -5.2169    1.0000 </r>
       <r>   -5.1666    1.0000 </r>
       <r>   -5.1408    1.0000 </r>
       <r>   -5.0808    1.0000 </r>
       <r>   -4.9838    1.0000 </r>
       <r>   -4.9421    1.0000 </r>
       <r>   -4.8479    1.0000 </r>
       <r>   -4.7575    1.0000 </r>
       <r>   -4.6768    1.0000 </r>
       <r>   -4.4850    1.0000 </r>
       <r>   -4.4568    1.0000 </r>
       <r>   -4.3393    1.0000 </r>
       <r>   -4.2342    1.0000 </r>
       <r>   -4.2045    1.0000 </r>
       <r>   -4.0469    1.0000 </r>
       <r>   -4.0101    1.0000 </r>
       <r>   -3.9990    1.0000 </r>
       <r>   -3.9275    1.0000 </r>
       <r>   -3.8902    1.0000 </r>
       <r>   -3.8208    1.0000 </r>
       <r>   -3.7616    1.0000 </r>
       <r>   -3.6745    1.0000 </r>
       <r>   -3.3608    1.0000 </r>
       <r>   -3.2895    1.0000 </r>
       <r>   -3.2485    1.0000 </r>
       <r>   -2.9523    1.0000 </r>
       <r>   -2.8123    1.0000 </r>
       <r>   -2.7045    1.0000 </r>
       <r>   -2.6430    1.0000 </r>
       <r>   -2.5652    1.0000 </r>
       <r>   -2.4954    1.0000 </r>
       <r>   -2.4002    1.0000 </r>
       <r>   -2.2750    1.0000 </r>
       <r>   -2.1827    1.0000 </r>
       <r>   -2.1500    1.0000 </r>
       <r>   -2.0497    1.0000 </r>
       <r>   -2.0000    1.0000 </r>
       <r>   -1.8702    1.0000 </r>
       <r>   -1.8169    1.0000 </r>
       <r>   -1.6668    1.0000 </r>
       <r>   -1.5202    1.0000 </r>
       <r>   -0.6910    0.0000 </r>
       <r>   -0.4815    0.0000 </r>
       <r>   -0.3336    0.0000 </r>
       <r>   -0.2286    0.0000 </r>
       <r>   -0.0972    0.0000 </r>
       <r>   -0.0226    0.0000 </r>
       <r>    0.0335    0.0000 </r>
       <r>    0.1330    0.0000 </r>
       <r>    0.2217    0.0000 </r>
       <r>    0.4075    0.0000 </r>
       <r>    0.5515    0.0000 </r>
       <r>    0.6395    0.0000 </r>
       <r>    0.8928    0.0000 </r>
       <r>    0.9973    0.0000 </r>
       <r>    1.1107    0.0000 </r>
       <r>    1.1254    0.0000 </r>
       <r>    1.1455    0.0000 </r>
       <r>    1.2467    0.0000 </r>
       <r>    1.2739    0.0000 </r>
       <r>    1.3435    0.0000 </r>
       <r>    1.3687    0.0000 </r>
       <r>    1.5538    0.0000 </r>
       <r>    1.6958    0.0000 </r>
      </set>
      <set comment="kpoint 4">
       <r>  -62.5570    1.0000 </r>
       <r>  -62.4788    1.0000 </r>
       <r>  -62.4575    1.0000 </r>
       <r>  -62.4309    1.0000 </r>
       <r>  -62.4234    1.0000 </r>
       <r>  -62.4035    1.0000 </r>
       <r>  -62.3953    1.0000 </r>
       <r>  -62.3802    1.0000 </r>
       <r>  -62.3519    1.0000 </r>
       <r>  -36.9253    1.0000 </r>
       <r>  -36.9159    1.0000 </r>
       <r>  -36.8882    1.0000 </r>
       <r>  -36.8063    1.0000 </r>
       <r>  -36.7811    1.0000 </r>
       <r>  -36.7535    1.0000 </r>
       <r>  -36.7213    1.0000 </r>
       <r>  -36.6772    1.0000 </r>
       <r>  -36.6600    1.0000 </r>
       <r>  -36.6344    1.0000 </r>
       <r>  -36.6108    1.0000 </r>
       <r>  -36.5832    1.0000 </r>
       <r>  -36.5725    1.0000 </r>
       <r>  -36.5355    1.0000 </r>
       <r>  -36.5218    1.0000 </r>
       <r>  -36.4969    1.0000 </r>
       <r>  -36.4828    1.0000 </r>
       <r>  -36.4656    1.0000 </r>
       <r>  -36.4518    1.0000 </r>
       <r>  -36.4430    1.0000 </r>
       <r>  -36.4384    1.0000 </r>
       <r>  -36.4121    1.0000 </r>
       <r>  -36.3926    1.0000 </r>
       <r>  -36.3767    1.0000 </r>
       <r>  -36.3635    1.0000 </r>
       <r>  -36.3414    1.0000 </r>
       <r>  -36.3074    1.0000 </r>
       <r>  -15.2463    1.0000 </r>
       <r>  -15.1992    1.0000 </r>
       <r>  -14.6547    1.0000 </r>
       <r>  -14.5571    1.0000 </r>
       <r>  -14.4521    1.0000 </r>
       <r>  -14.3435    1.0000 </r>
       <r>  -14.1420    1.0000 </r>
       <r>  -14.1179    1.0000 </r>
       <r>  -14.0209    1.0000 </r>
       <r>  -13.9292    1.0000 </r>
       <r>  -13.8785    1.0000 </r>
       <r>  -13.8169    1.0000 </r>
       <r>  -13.7827    1.0000 </r>
       <r>  -13.6241    1.0000 </r>
       <r>  -13.5519    1.0000 </r>
       <r>  -13.2325    1.0000 </r>
       <r>  -13.1520    1.0000 </r>
       <r>  -13.0225    1.0000 </r>
       <r>   -7.6356    1.0000 </r>
       <r>   -7.1511    1.0000 </r>
       <r>   -7.1114    1.0000 </r>
       <r>   -7.0465    1.0000 </r>
       <r>   -7.0111    1.0000 </r>
       <r>   -6.6260    1.0000 </r>
       <r>   -6.5402    1.0000 </r>
       <r>   -6.4865    1.0000 </r>
       <r>   -6.3900    1.0000 </r>
       <r>   -6.3226    1.0000 </r>
       <r>   -6.2174    1.0000 </r>
       <r>   -6.1842    1.0000 </r>
       <r>   -6.1435    1.0000 </r>
       <r>   -5.9782    1.0000 </r>
       <r>   -5.9404    1.0000 </r>
       <r>   -5.7929    1.0000 </r>
       <r>   -5.7304    1.0000 </r>
       <r>   -5.6525    1.0000 </r>
       <r>   -5.4302    1.0000 </r>
       <r>   -5.3793    1.0000 </r>
       <r>   -5.3123    1.0000 </r>
       <r>   -5.2970    1.0000 </r>
       <r>   -5.2220    1.0000 </r>
       <r>   -5.1870    1.0000 </r>
       <r>   -5.1016    1.0000 </r>
       <r>   -4.9933    1.0000 </r>
       <r>   -4.8884    1.0000 </r>
       <r>   -4.8118    1.0000 </r>
       <r>   -4.7966    1.0000 </r>
       <r>   -4.7608    1.0000 </r>
       <r>   -4.6823    1.0000 </r>
       <r>   -4.5288    1.0000 </r>
       <r>   -4.4979    1.0000 </r>
       <r>   -4.2966    1.0000 </r>
       <r>   -4.2837    1.0000 </r>
       <r>   -4.2486    1.0000 </r>
       <r>   -4.1952    1.0000 </r>
       <r>   -4.1079    1.0000 </r>
       <r>   -4.0057    1.0000 </r>
       <r>   -3.9182    1.0000 </r>
       <r>   -3.8674    1.0000 </r>
       <r>   -3.8060    1.0000 </r>
       <r>   -3.7489    1.0000 </r>
       <r>   -3.7175    1.0000 </r>
       <r>   -3.3866    1.0000 </r>
       <r>   -3.2054    1.0000 </r>
       <r>   -3.1550    1.0000 </r>
       <r>   -3.0923    1.0000 </r>
       <r>   -2.8478    1.0000 </r>
       <r>   -2.7516    1.0000 </r>
       <r>   -2.6349    1.0000 </r>
       <r>   -2.5229    1.0000 </r>
       <r>   -2.4450    1.0000 </r>
       <r>   -2.3398    1.0000 </r>
       <r>   -2.3184    1.0000 </r>
       <r>   -2.2114    1.0000 </r>
       <r>   -2.1319    1.0000 </r>
       <r>   -2.0092    1.0000 </r>
       <r>   -1.9609    1.0000 </r>
       <r>   -1.8569    1.0000 </r>
       <r>   -1.8224    1.0000 </r>
       <r>   -1.6954    1.0000 </r>
       <r>   -1.5802    1.0000 </r>
       <r>   -0.6066    0.0000 </r>
       <r>   -0.5979    0.0000 </r>
       <r>   -0.4044    0.0000 </r>
       <r>   -0.2417    0.0000 </r>
       <r>   -0.1285    0.0000 </r>
       <r>    0.0291    0.0000 </r>
       <r>    0.1035    0.0000 </r>
       <r>    0.1717    0.0000 </r>
       <r>    0.2116    0.0000 </r>
       <r>    0.4680    0.0000 </r>
       <r>    0.5805    0.0000 </r>
       <r>    0.6433    0.0000 </r>
       <r>    0.9326    0.0000 </r>
       <r>    0.9925    0.0000 </r>
       <r>    1.0523    0.0000 </r>
       <r>    1.1494    0.0000 </r>
       <r>    1.1736    0.0000 </r>
       <r>    1.2364    0.0000 </r>
       <r>    1.2590    0.0000 </r>
       <r>    1.3096    0.0000 </r>
       <r>    1.3454    0.0000 </r>
       <r>    1.4817    0.0000 </r>
       <r>    1.5938    0.0000 </r>
      </set>
      <set comment="kpoint 5">
       <r>  -62.5571    1.0000 </r>
       <r>  -62.4797    1.0000 </r>
       <r>  -62.4550    1.0000 </r>
       <r>  -62.4332    1.0000 </r>
       <r>  -62.4213    1.0000 </r>
       <r>  -62.4061    1.0000 </r>
       <r>  -62.3943    1.0000 </r>
       <r>  -62.3800    1.0000 </r>
       <r>  -62.3517    1.0000 </r>
       <r>  -36.9321    1.0000 </r>
       <r>  -36.8789    1.0000 </r>
       <r>  -36.8399    1.0000 </r>
       <r>  -36.8218    1.0000 </r>
       <r>  -36.7921    1.0000 </r>
       <r>  -36.7678    1.0000 </r>
       <r>  -36.7617    1.0000 </r>
       <r>  -36.7204    1.0000 </r>
       <r>  -36.6850    1.0000 </r>
       <r>  -36.6408    1.0000 </r>
       <r>  -36.5854    1.0000 </r>
       <r>  -36.5757    1.0000 </r>
       <r>  -36.5518    1.0000 </r>
       <r>  -36.5362    1.0000 </r>
       <r>  -36.5018    1.0000 </r>
       <r>  -36.4870    1.0000 </r>
       <r>  -36.4853    1.0000 </r>
       <r>  -36.4657    1.0000 </r>
       <r>  -36.4474    1.0000 </r>
       <r>  -36.4365    1.0000 </r>
       <r>  -36.4251    1.0000 </r>
       <r>  -36.4170    1.0000 </r>
       <r>  -36.4052    1.0000 </r>
       <r>  -36.3929    1.0000 </r>
       <r>  -36.3717    1.0000 </r>
       <r>  -36.3303    1.0000 </r>
       <r>  -36.3036    1.0000 </r>
       <r>  -15.5732    1.0000 </r>
       <r>  -14.6811    1.0000 </r>
       <r>  -14.5805    1.0000 </r>
       <r>  -14.5137    1.0000 </r>
       <r>  -14.4067    1.0000 </r>
       <r>  -14.3673    1.0000 </r>
       <r>  -14.2590    1.0000 </r>
       <r>  -14.1610    1.0000 </r>
       <r>  -14.0681    1.0000 </r>
       <r>  -14.0122    1.0000 </r>
       <r>  -13.8972    1.0000 </r>
       <r>  -13.8449    1.0000 </r>
       <r>  -13.7348    1.0000 </r>
       <r>  -13.5377    1.0000 </r>
       <r>  -13.5225    1.0000 </r>
       <r>  -13.4149    1.0000 </r>
       <r>  -13.2565    1.0000 </r>
       <r>  -12.9660    1.0000 </r>
       <r>   -7.1315    1.0000 </r>
       <r>   -7.0382    1.0000 </r>
       <r>   -6.9081    1.0000 </r>
       <r>   -6.8621    1.0000 </r>
       <r>   -6.8119    1.0000 </r>
       <r>   -6.7327    1.0000 </r>
       <r>   -6.6465    1.0000 </r>
       <r>   -6.5309    1.0000 </r>
       <r>   -6.4527    1.0000 </r>
       <r>   -6.3989    1.0000 </r>
       <r>   -6.3382    1.0000 </r>
       <r>   -6.3131    1.0000 </r>
       <r>   -6.1265    1.0000 </r>
       <r>   -6.0796    1.0000 </r>
       <r>   -5.9959    1.0000 </r>
       <r>   -5.9227    1.0000 </r>
       <r>   -5.8333    1.0000 </r>
       <r>   -5.7560    1.0000 </r>
       <r>   -5.6761    1.0000 </r>
       <r>   -5.5916    1.0000 </r>
       <r>   -5.5437    1.0000 </r>
       <r>   -5.3023    1.0000 </r>
       <r>   -5.2117    1.0000 </r>
       <r>   -5.1260    1.0000 </r>
       <r>   -5.0738    1.0000 </r>
       <r>   -5.0402    1.0000 </r>
       <r>   -4.9573    1.0000 </r>
       <r>   -4.7923    1.0000 </r>
       <r>   -4.6884    1.0000 </r>
       <r>   -4.6415    1.0000 </r>
       <r>   -4.5758    1.0000 </r>
       <r>   -4.5060    1.0000 </r>
       <r>   -4.4331    1.0000 </r>
       <r>   -4.3893    1.0000 </r>
       <r>   -4.3180    1.0000 </r>
       <r>   -4.2265    1.0000 </r>
       <r>   -4.1877    1.0000 </r>
       <r>   -4.1503    1.0000 </r>
       <r>   -4.0689    1.0000 </r>
       <r>   -3.7745    1.0000 </r>
       <r>   -3.7418    1.0000 </r>
       <r>   -3.6870    1.0000 </r>
       <r>   -3.6366    1.0000 </r>
       <r>   -3.5851    1.0000 </r>
       <r>   -3.4873    1.0000 </r>
       <r>   -3.2127    1.0000 </r>
       <r>   -3.1859    1.0000 </r>
       <r>   -2.9902    1.0000 </r>
       <r>   -2.8705    1.0000 </r>
       <r>   -2.8099    1.0000 </r>
       <r>   -2.7736    1.0000 </r>
       <r>   -2.6478    1.0000 </r>
       <r>   -2.5130    1.0000 </r>
       <r>   -2.3711    1.0000 </r>
       <r>   -2.3195    1.0000 </r>
       <r>   -2.2262    1.0000 </r>
       <r>   -2.1056    1.0000 </r>
       <r>   -2.0477    1.0000 </r>
       <r>   -1.9280    1.0000 </r>
       <r>   -1.9118    1.0000 </r>
       <r>   -1.7628    1.0000 </r>
       <r>   -1.5672    1.0000 </r>
       <r>   -1.4401    1.0000 </r>
       <r>   -0.7158    0.0000 </r>
       <r>   -0.3581    0.0000 </r>
       <r>   -0.2531    0.0000 </r>
       <r>   -0.1960    0.0000 </r>
       <r>   -0.1502    0.0000 </r>
       <r>   -0.0764    0.0000 </r>
       <r>    0.0250    0.0000 </r>
       <r>    0.0987    0.0000 </r>
       <r>    0.1492    0.0000 </r>
       <r>    0.2932    0.0000 </r>
       <r>    0.5832    0.0000 </r>
       <r>    0.6730    0.0000 </r>
       <r>    0.8321    0.0000 </r>
       <r>    0.8738    0.0000 </r>
       <r>    0.9973    0.0000 </r>
       <r>    1.0563    0.0000 </r>
       <r>    1.1647    0.0000 </r>
       <r>    1.1756    0.0000 </r>
       <r>    1.3671    0.0000 </r>
       <r>    1.4878    0.0000 </r>
       <r>    1.5976    0.0000 </r>
       <r>    1.7240    0.0000 </r>
       <r>    1.9435    0.0000 </r>
      </set>
      <set comment="kpoint 6">
       <r>  -62.5570    1.0000 </r>
       <r>  -62.4796    1.0000 </r>
       <r>  -62.4555    1.0000 </r>
       <r>  -62.4335    1.0000 </r>
       <r>  -62.4211    1.0000 </r>
       <r>  -62.4050    1.0000 </r>
       <r>  -62.3948    1.0000 </r>
       <r>  -62.3801    1.0000 </r>
       <r>  -62.3518    1.0000 </r>
       <r>  -36.9311    1.0000 </r>
       <r>  -36.9002    1.0000 </r>
       <r>  -36.8643    1.0000 </r>
       <r>  -36.8052    1.0000 </r>
       <r>  -36.7874    1.0000 </r>
       <r>  -36.7722    1.0000 </r>
       <r>  -36.7371    1.0000 </r>
       <r>  -36.6990    1.0000 </r>
       <r>  -36.6731    1.0000 </r>
       <r>  -36.6332    1.0000 </r>
       <r>  -36.5913    1.0000 </r>
       <r>  -36.5866    1.0000 </r>
       <r>  -36.5633    1.0000 </r>
       <r>  -36.5381    1.0000 </r>
       <r>  -36.5107    1.0000 </r>
       <r>  -36.4918    1.0000 </r>
       <r>  -36.4831    1.0000 </r>
       <r>  -36.4640    1.0000 </r>
       <r>  -36.4475    1.0000 </r>
       <r>  -36.4398    1.0000 </r>
       <r>  -36.4318    1.0000 </r>
       <r>  -36.4124    1.0000 </r>
       <r>  -36.4001    1.0000 </r>
       <r>  -36.3870    1.0000 </r>
       <r>  -36.3659    1.0000 </r>
       <r>  -36.3381    1.0000 </r>
       <r>  -36.3047    1.0000 </r>
       <r>  -15.4824    1.0000 </r>
       <r>  -14.7941    1.0000 </r>
       <r>  -14.7801    1.0000 </r>
       <r>  -14.4892    1.0000 </r>
       <r>  -14.3992    1.0000 </r>
       <r>  -14.3513    1.0000 </r>
       <r>  -14.1807    1.0000 </r>
       <r>  -14.1281    1.0000 </r>
       <r>  -14.0831    1.0000 </r>
       <r>  -13.9833    1.0000 </r>
       <r>  -13.8603    1.0000 </r>
       <r>  -13.8266    1.0000 </r>
       <r>  -13.7449    1.0000 </r>
       <r>  -13.6063    1.0000 </r>
       <r>  -13.5342    1.0000 </r>
       <r>  -13.3264    1.0000 </r>
       <r>  -13.2086    1.0000 </r>
       <r>  -12.9827    1.0000 </r>
       <r>   -7.3362    1.0000 </r>
       <r>   -7.2691    1.0000 </r>
       <r>   -7.0466    1.0000 </r>
       <r>   -6.9408    1.0000 </r>
       <r>   -6.8147    1.0000 </r>
       <r>   -6.6964    1.0000 </r>
       <r>   -6.6383    1.0000 </r>
       <r>   -6.4612    1.0000 </r>
       <r>   -6.4185    1.0000 </r>
       <r>   -6.3396    1.0000 </r>
       <r>   -6.2708    1.0000 </r>
       <r>   -6.2338    1.0000 </r>
       <r>   -6.1137    1.0000 </r>
       <r>   -6.0642    1.0000 </r>
       <r>   -6.0241    1.0000 </r>
       <r>   -5.7714    1.0000 </r>
       <r>   -5.7080    1.0000 </r>
       <r>   -5.5890    1.0000 </r>
       <r>   -5.5640    1.0000 </r>
       <r>   -5.5028    1.0000 </r>
       <r>   -5.4306    1.0000 </r>
       <r>   -5.2740    1.0000 </r>
       <r>   -5.2382    1.0000 </r>
       <r>   -5.1698    1.0000 </r>
       <r>   -5.0949    1.0000 </r>
       <r>   -5.0788    1.0000 </r>
       <r>   -5.0249    1.0000 </r>
       <r>   -4.9068    1.0000 </r>
       <r>   -4.7911    1.0000 </r>
       <r>   -4.7035    1.0000 </r>
       <r>   -4.6821    1.0000 </r>
       <r>   -4.5060    1.0000 </r>
       <r>   -4.3983    1.0000 </r>
       <r>   -4.3433    1.0000 </r>
       <r>   -4.2883    1.0000 </r>
       <r>   -4.1976    1.0000 </r>
       <r>   -4.1139    1.0000 </r>
       <r>   -4.0448    1.0000 </r>
       <r>   -3.9805    1.0000 </r>
       <r>   -3.9394    1.0000 </r>
       <r>   -3.8598    1.0000 </r>
       <r>   -3.7871    1.0000 </r>
       <r>   -3.7119    1.0000 </r>
       <r>   -3.5381    1.0000 </r>
       <r>   -3.4852    1.0000 </r>
       <r>   -3.2337    1.0000 </r>
       <r>   -3.1419    1.0000 </r>
       <r>   -2.9941    1.0000 </r>
       <r>   -2.9243    1.0000 </r>
       <r>   -2.7790    1.0000 </r>
       <r>   -2.6196    1.0000 </r>
       <r>   -2.5487    1.0000 </r>
       <r>   -2.4517    1.0000 </r>
       <r>   -2.3230    1.0000 </r>
       <r>   -2.2924    1.0000 </r>
       <r>   -2.2057    1.0000 </r>
       <r>   -2.1764    1.0000 </r>
       <r>   -2.0922    1.0000 </r>
       <r>   -1.9597    1.0000 </r>
       <r>   -1.9203    1.0000 </r>
       <r>   -1.8687    1.0000 </r>
       <r>   -1.6549    1.0000 </r>
       <r>   -1.4448    1.0000 </r>
       <r>   -0.7059    0.0000 </r>
       <r>   -0.4096    0.0000 </r>
       <r>   -0.3007    0.0000 </r>
       <r>   -0.1903    0.0000 </r>
       <r>   -0.1259    0.0000 </r>
       <r>   -0.0351    0.0000 </r>
       <r>    0.0079    0.0000 </r>
       <r>    0.1143    0.0000 </r>
       <r>    0.1891    0.0000 </r>
       <r>    0.3739    0.0000 </r>
       <r>    0.5465    0.0000 </r>
       <r>    0.6241    0.0000 </r>
       <r>    0.8692    0.0000 </r>
       <r>    0.9778    0.0000 </r>
       <r>    1.0902    0.0000 </r>
       <r>    1.1131    0.0000 </r>
       <r>    1.1952    0.0000 </r>
       <r>    1.2362    0.0000 </r>
       <r>    1.2945    0.0000 </r>
       <r>    1.3281    0.0000 </r>
       <r>    1.3875    0.0000 </r>
       <r>    1.6434    0.0000 </r>
       <r>    1.7550    0.0000 </r>
      </set>
      <set comment="kpoint 7">
       <r>  -62.5570    1.0000 </r>
       <r>  -62.4791    1.0000 </r>
       <r>  -62.4567    1.0000 </r>
       <r>  -62.4325    1.0000 </r>
       <r>  -62.4220    1.0000 </r>
       <r>  -62.4037    1.0000 </r>
       <r>  -62.3953    1.0000 </r>
       <r>  -62.3802    1.0000 </r>
       <r>  -62.3519    1.0000 </r>
       <r>  -36.9277    1.0000 </r>
       <r>  -36.9154    1.0000 </r>
       <r>  -36.8845    1.0000 </r>
       <r>  -36.8017    1.0000 </r>
       <r>  -36.7844    1.0000 </r>
       <r>  -36.7632    1.0000 </r>
       <r>  -36.7191    1.0000 </r>
       <r>  -36.6689    1.0000 </r>
       <r>  -36.6634    1.0000 </r>
       <r>  -36.6292    1.0000 </r>
       <r>  -36.6122    1.0000 </r>
       <r>  -36.5891    1.0000 </r>
       <r>  -36.5734    1.0000 </r>
       <r>  -36.5400    1.0000 </r>
       <r>  -36.5186    1.0000 </r>
       <r>  -36.4962    1.0000 </r>
       <r>  -36.4809    1.0000 </r>
       <r>  -36.4643    1.0000 </r>
       <r>  -36.4494    1.0000 </r>
       <r>  -36.4423    1.0000 </r>
       <r>  -36.4363    1.0000 </r>
       <r>  -36.4107    1.0000 </r>
       <r>  -36.3954    1.0000 </r>
       <r>  -36.3829    1.0000 </r>
       <r>  -36.3630    1.0000 </r>
       <r>  -36.3402    1.0000 </r>
       <r>  -36.3068    1.0000 </r>
       <r>  -15.3088    1.0000 </r>
       <r>  -15.0615    1.0000 </r>
       <r>  -14.8523    1.0000 </r>
       <r>  -14.4564    1.0000 </r>
       <r>  -14.4115    1.0000 </r>
       <r>  -14.3435    1.0000 </r>
       <r>  -14.1375    1.0000 </r>
       <r>  -14.0779    1.0000 </r>
       <r>  -14.0506    1.0000 </r>
       <r>  -13.9220    1.0000 </r>
       <r>  -13.9067    1.0000 </r>
       <r>  -13.8391    1.0000 </r>
       <r>  -13.7375    1.0000 </r>
       <r>  -13.6579    1.0000 </r>
       <r>  -13.5692    1.0000 </r>
       <r>  -13.2364    1.0000 </r>
       <r>  -13.1508    1.0000 </r>
       <r>  -13.0042    1.0000 </r>
       <r>   -7.5643    1.0000 </r>
       <r>   -7.3667    1.0000 </r>
       <r>   -7.2533    1.0000 </r>
       <r>   -6.8888    1.0000 </r>
       <r>   -6.7613    1.0000 </r>
       <r>   -6.6658    1.0000 </r>
       <r>   -6.5435    1.0000 </r>
       <r>   -6.4501    1.0000 </r>
       <r>   -6.3984    1.0000 </r>
       <r>   -6.3360    1.0000 </r>
       <r>   -6.2852    1.0000 </r>
       <r>   -6.1561    1.0000 </r>
       <r>   -6.1145    1.0000 </r>
       <r>   -6.0734    1.0000 </r>
       <r>   -5.9575    1.0000 </r>
       <r>   -5.7725    1.0000 </r>
       <r>   -5.7154    1.0000 </r>
       <r>   -5.6128    1.0000 </r>
       <r>   -5.4870    1.0000 </r>
       <r>   -5.4085    1.0000 </r>
       <r>   -5.3261    1.0000 </r>
       <r>   -5.2760    1.0000 </r>
       <r>   -5.1685    1.0000 </r>
       <r>   -5.1141    1.0000 </r>
       <r>   -5.0683    1.0000 </r>
       <r>   -5.0344    1.0000 </r>
       <r>   -4.9532    1.0000 </r>
       <r>   -4.8845    1.0000 </r>
       <r>   -4.8755    1.0000 </r>
       <r>   -4.7661    1.0000 </r>
       <r>   -4.6517    1.0000 </r>
       <r>   -4.5343    1.0000 </r>
       <r>   -4.4674    1.0000 </r>
       <r>   -4.3854    1.0000 </r>
       <r>   -4.3325    1.0000 </r>
       <r>   -4.2047    1.0000 </r>
       <r>   -4.1406    1.0000 </r>
       <r>   -4.0768    1.0000 </r>
       <r>   -3.9926    1.0000 </r>
       <r>   -3.8733    1.0000 </r>
       <r>   -3.8396    1.0000 </r>
       <r>   -3.7715    1.0000 </r>
       <r>   -3.7123    1.0000 </r>
       <r>   -3.6096    1.0000 </r>
       <r>   -3.4364    1.0000 </r>
       <r>   -3.2402    1.0000 </r>
       <r>   -3.1895    1.0000 </r>
       <r>   -2.9722    1.0000 </r>
       <r>   -2.9159    1.0000 </r>
       <r>   -2.8487    1.0000 </r>
       <r>   -2.7599    1.0000 </r>
       <r>   -2.4709    1.0000 </r>
       <r>   -2.3869    1.0000 </r>
       <r>   -2.3272    1.0000 </r>
       <r>   -2.2919    1.0000 </r>
       <r>   -2.2136    1.0000 </r>
       <r>   -2.1238    1.0000 </r>
       <r>   -2.0267    1.0000 </r>
       <r>   -1.9957    1.0000 </r>
       <r>   -1.9750    1.0000 </r>
       <r>   -1.8376    1.0000 </r>
       <r>   -1.6275    1.0000 </r>
       <r>   -1.5196    1.0000 </r>
       <r>   -0.6438    0.0000 </r>
       <r>   -0.4945    0.0000 </r>
       <r>   -0.3849    0.0000 </r>
       <r>   -0.2037    0.0000 </r>
       <r>   -0.0863    0.0000 </r>
       <r>   -0.0218    0.0000 </r>
       <r>    0.0431    0.0000 </r>
       <r>    0.1254    0.0000 </r>
       <r>    0.1957    0.0000 </r>
       <r>    0.4573    0.0000 </r>
       <r>    0.5553    0.0000 </r>
       <r>    0.6244    0.0000 </r>
       <r>    0.9081    0.0000 </r>
       <r>    1.0487    0.0000 </r>
       <r>    1.0899    0.0000 </r>
       <r>    1.1470    0.0000 </r>
       <r>    1.1764    0.0000 </r>
       <r>    1.2295    0.0000 </r>
       <r>    1.2674    0.0000 </r>
       <r>    1.3042    0.0000 </r>
       <r>    1.3455    0.0000 </r>
       <r>    1.4844    0.0000 </r>
       <r>    1.5839    0.0000 </r>
      </set>
      <set comment="kpoint 8">
       <r>  -62.5570    1.0000 </r>
       <r>  -62.4788    1.0000 </r>
       <r>  -62.4575    1.0000 </r>
       <r>  -62.4311    1.0000 </r>
       <r>  -62.4233    1.0000 </r>
       <r>  -62.4036    1.0000 </r>
       <r>  -62.3950    1.0000 </r>
       <r>  -62.3802    1.0000 </r>
       <r>  -62.3519    1.0000 </r>
       <r>  -36.9294    1.0000 </r>
       <r>  -36.9105    1.0000 </r>
       <r>  -36.8890    1.0000 </r>
       <r>  -36.8032    1.0000 </r>
       <r>  -36.7847    1.0000 </r>
       <r>  -36.7575    1.0000 </r>
       <r>  -36.7171    1.0000 </r>
       <r>  -36.6779    1.0000 </r>
       <r>  -36.6567    1.0000 </r>
       <r>  -36.6346    1.0000 </r>
       <r>  -36.6093    1.0000 </r>
       <r>  -36.5866    1.0000 </r>
       <r>  -36.5717    1.0000 </r>
       <r>  -36.5411    1.0000 </r>
       <r>  -36.5203    1.0000 </r>
       <r>  -36.4965    1.0000 </r>
       <r>  -36.4799    1.0000 </r>
       <r>  -36.4667    1.0000 </r>
       <r>  -36.4498    1.0000 </r>
       <r>  -36.4425    1.0000 </r>
       <r>  -36.4387    1.0000 </r>
       <r>  -36.4105    1.0000 </r>
       <r>  -36.3995    1.0000 </r>
       <r>  -36.3786    1.0000 </r>
       <r>  -36.3605    1.0000 </r>
       <r>  -36.3382    1.0000 </r>
       <r>  -36.3082    1.0000 </r>
       <r>  -15.3090    1.0000 </r>
       <r>  -15.0604    1.0000 </r>
       <r>  -14.8529    1.0000 </r>
       <r>  -14.4546    1.0000 </r>
       <r>  -14.4166    1.0000 </r>
       <r>  -14.3310    1.0000 </r>
       <r>  -14.1372    1.0000 </r>
       <r>  -14.0897    1.0000 </r>
       <r>  -14.0378    1.0000 </r>
       <r>  -13.9554    1.0000 </r>
       <r>  -13.9093    1.0000 </r>
       <r>  -13.7964    1.0000 </r>
       <r>  -13.7673    1.0000 </r>
       <r>  -13.6658    1.0000 </r>
       <r>  -13.5521    1.0000 </r>
       <r>  -13.2341    1.0000 </r>
       <r>  -13.1450    1.0000 </r>
       <r>  -13.0080    1.0000 </r>
       <r>   -7.5660    1.0000 </r>
       <r>   -7.3482    1.0000 </r>
       <r>   -7.2788    1.0000 </r>
       <r>   -6.8740    1.0000 </r>
       <r>   -6.7961    1.0000 </r>
       <r>   -6.6612    1.0000 </r>
       <r>   -6.5546    1.0000 </r>
       <r>   -6.4666    1.0000 </r>
       <r>   -6.3912    1.0000 </r>
       <r>   -6.3510    1.0000 </r>
       <r>   -6.2441    1.0000 </r>
       <r>   -6.1437    1.0000 </r>
       <r>   -6.1124    1.0000 </r>
       <r>   -6.0706    1.0000 </r>
       <r>   -5.9731    1.0000 </r>
       <r>   -5.7567    1.0000 </r>
       <r>   -5.6674    1.0000 </r>
       <r>   -5.6329    1.0000 </r>
       <r>   -5.4885    1.0000 </r>
       <r>   -5.4006    1.0000 </r>
       <r>   -5.3272    1.0000 </r>
       <r>   -5.2658    1.0000 </r>
       <r>   -5.1291    1.0000 </r>
       <r>   -5.1164    1.0000 </r>
       <r>   -5.1035    1.0000 </r>
       <r>   -5.0418    1.0000 </r>
       <r>   -5.0118    1.0000 </r>
       <r>   -4.8754    1.0000 </r>
       <r>   -4.8561    1.0000 </r>
       <r>   -4.8045    1.0000 </r>
       <r>   -4.6718    1.0000 </r>
       <r>   -4.5393    1.0000 </r>
       <r>   -4.4208    1.0000 </r>
       <r>   -4.3669    1.0000 </r>
       <r>   -4.2855    1.0000 </r>
       <r>   -4.2405    1.0000 </r>
       <r>   -4.1553    1.0000 </r>
       <r>   -4.0856    1.0000 </r>
       <r>   -3.9564    1.0000 </r>
       <r>   -3.8757    1.0000 </r>
       <r>   -3.8000    1.0000 </r>
       <r>   -3.7583    1.0000 </r>
       <r>   -3.7437    1.0000 </r>
       <r>   -3.6279    1.0000 </r>
       <r>   -3.4679    1.0000 </r>
       <r>   -3.2370    1.0000 </r>
       <r>   -3.1925    1.0000 </r>
       <r>   -3.0041    1.0000 </r>
       <r>   -2.8914    1.0000 </r>
       <r>   -2.8582    1.0000 </r>
       <r>   -2.7749    1.0000 </r>
       <r>   -2.4715    1.0000 </r>
       <r>   -2.4217    1.0000 </r>
       <r>   -2.3637    1.0000 </r>
       <r>   -2.2499    1.0000 </r>
       <r>   -2.1679    1.0000 </r>
       <r>   -2.1409    1.0000 </r>
       <r>   -2.0764    1.0000 </r>
       <r>   -1.9883    1.0000 </r>
       <r>   -1.8550    1.0000 </r>
       <r>   -1.7958    1.0000 </r>
       <r>   -1.6655    1.0000 </r>
       <r>   -1.5588    1.0000 </r>
       <r>   -0.5982    0.0000 </r>
       <r>   -0.5347    0.0000 </r>
       <r>   -0.3965    0.0000 </r>
       <r>   -0.2145    0.0000 </r>
       <r>   -0.0901    0.0000 </r>
       <r>   -0.0263    0.0000 </r>
       <r>    0.0353    0.0000 </r>
       <r>    0.1399    0.0000 </r>
       <r>    0.2092    0.0000 </r>
       <r>    0.4608    0.0000 </r>
       <r>    0.5647    0.0000 </r>
       <r>    0.6090    0.0000 </r>
       <r>    0.9505    0.0000 </r>
       <r>    1.0199    0.0000 </r>
       <r>    1.0949    0.0000 </r>
       <r>    1.1417    0.0000 </r>
       <r>    1.1611    0.0000 </r>
       <r>    1.2228    0.0000 </r>
       <r>    1.2520    0.0000 </r>
       <r>    1.3218    0.0000 </r>
       <r>    1.3781    0.0000 </r>
       <r>    1.4736    0.0000 </r>
       <r>    1.5413    0.0000 </r>
      </set>
      <set comment="kpoint 9">
       <r>  -62.5571    1.0000 </r>
       <r>  -62.4789    1.0000 </r>
       <r>  -62.4571    1.0000 </r>
       <r>  -62.4306    1.0000 </r>
       <r>  -62.4237    1.0000 </r>
       <r>  -62.4048    1.0000 </r>
       <r>  -62.3943    1.0000 </r>
       <r>  -62.3801    1.0000 </r>
       <r>  -62.3519    1.0000 </r>
       <r>  -36.9320    1.0000 </r>
       <r>  -36.8918    1.0000 </r>
       <r>  -36.8768    1.0000 </r>
       <r>  -36.8036    1.0000 </r>
       <r>  -36.7905    1.0000 </r>
       <r>  -36.7585    1.0000 </r>
       <r>  -36.7397    1.0000 </r>
[...]
       <r>   -5.2705    1.0000 </r>
       <r>   -5.2377    1.0000 </r>
       <r>   -5.1570    1.0000 </r>
       <r>   -5.0953    1.0000 </r>
       <r>   -5.0216    1.0000 </r>
       <r>   -4.9511    1.0000 </r>
       <r>   -4.8816    1.0000 </r>
       <r>   -4.8486    1.0000 </r>
       <r>   -4.7718    1.0000 </r>
       <r>   -4.6195    1.0000 </r>
       <r>   -4.5258    1.0000 </r>
       <r>   -4.3933    1.0000 </r>
       <r>   -4.3092    1.0000 </r>
       <r>   -4.2582    1.0000 </r>
       <r>   -4.2256    1.0000 </r>
       <r>   -4.2010    1.0000 </r>
       <r>   -4.0537    1.0000 </r>
       <r>   -3.9858    1.0000 </r>
       <r>   -3.9529    1.0000 </r>
       <r>   -3.8962    1.0000 </r>
       <r>   -3.8292    1.0000 </r>
       <r>   -3.7604    1.0000 </r>
       <r>   -3.6941    1.0000 </r>
       <r>   -3.3276    1.0000 </r>
       <r>   -3.3088    1.0000 </r>
       <r>   -3.2400    1.0000 </r>
       <r>   -3.0879    1.0000 </r>
       <r>   -2.8986    1.0000 </r>
       <r>   -2.8328    1.0000 </r>
       <r>   -2.5915    1.0000 </r>
       <r>   -2.5216    1.0000 </r>
       <r>   -2.4792    1.0000 </r>
       <r>   -2.3743    1.0000 </r>
       <r>   -2.2248    1.0000 </r>
       <r>   -2.1516    1.0000 </r>
       <r>   -2.1224    1.0000 </r>
       <r>   -1.9883    1.0000 </r>
       <r>   -1.9058    1.0000 </r>
       <r>   -1.8438    1.0000 </r>
       <r>   -1.7613    1.0000 </r>
       <r>   -1.7276    1.0000 </r>
       <r>   -1.5978    1.0000 </r>
       <r>   -0.6197    0.0000 </r>
       <r>   -0.5955    0.0000 </r>
       <r>   -0.4114    0.0000 </r>
       <r>   -0.2676    0.0000 </r>
       <r>   -0.1307    0.0000 </r>
       <r>   -0.0077    0.0000 </r>
       <r>    0.0750    0.0000 </r>
       <r>    0.2072    0.0000 </r>
       <r>    0.2916    0.0000 </r>
       <r>    0.4713    0.0000 </r>
       <r>    0.4910    0.0000 </r>
       <r>    0.6290    0.0000 </r>
       <r>    0.9475    0.0000 </r>
       <r>    1.0110    0.0000 </r>
       <r>    1.0328    0.0000 </r>
       <r>    1.1260    0.0000 </r>
       <r>    1.1685    0.0000 </r>
       <r>    1.2286    0.0000 </r>
       <r>    1.2622    0.0000 </r>
       <r>    1.3119    0.0000 </r>
       <r>    1.3206    0.0000 </r>
       <r>    1.4569    0.0000 </r>
       <r>    1.6734    0.0000 </r>
      </set>
     </set>
    </set>
   </array>
  </eigenvalues>
  <separator name="orbital magnetization" >
   <v name="MAGDIPOLOUT">      0.00000000      0.00000000      0.00000000</v>
  </separator>
  <dos>
   <i name="efermi">     -1.15348885 </i>
   <total>
    <array>
     <dimension dim="1">gridpoints</dimension>
     <dimension dim="2">spin</dimension>
     <field>energy</field>
     <field>total</field>
     <field>integrated</field>
     <set>
      <set comment="spin 1">
       <r>   -65.7824     0.0000     0.0000 </r>
       <r>   -65.5459     0.0000     0.0000 </r>
       <r>   -65.3094     0.0000     0.0000 </r>
       <r>   -65.0729     0.0000     0.0000 </r>
       <r>   -64.8363     0.0000     0.0000 </r>
       <r>   -64.5998     0.0000     0.0000 </r>
       <r>   -64.3633     0.0000     0.0000 </r>
       <r>   -64.1268     0.0000     0.0000 </r>
       <r>   -63.8903     0.0000     0.0000 </r>
       <r>   -63.6537     0.0000     0.0000 </r>
       <r>   -63.4172     0.0000     0.0000 </r>
       <r>   -63.1807     0.0000     0.0000 </r>
       <r>   -62.9442     0.0000     0.0000 </r>
       <r>   -62.7077     0.0001     0.0000 </r>
       <r>   -62.4711    18.5239     4.3813 </r>
       <r>   -62.2346    57.5756    17.9990 </r>
       <r>   -61.9981     0.0040    18.0000 </r>
       <r>   -61.7616     0.0000    18.0000 </r>
       <r>   -61.5251     0.0000    18.0000 </r>
       <r>   -61.2886     0.0000    18.0000 </r>
       <r>   -61.0520     0.0000    18.0000 </r>
       <r>   -60.8155     0.0000    18.0000 </r>
       <r>   -60.5790     0.0000    18.0000 </r>
       <r>   -60.3425     0.0000    18.0000 </r>
       <r>   -60.1060     0.0000    18.0000 </r>
       <r>   -59.8694     0.0000    18.0000 </r>
       <r>   -59.6329     0.0000    18.0000 </r>
       <r>   -59.3964     0.0000    18.0000 </r>
       <r>   -59.1599     0.0000    18.0000 </r>
       <r>   -58.9234     0.0000    18.0000 </r>
       <r>   -58.6868     0.0000    18.0000 </r>
       <r>   -58.4503     0.0000    18.0000 </r>
       <r>   -58.2138     0.0000    18.0000 </r>
       <r>   -57.9773     0.0000    18.0000 </r>
       <r>   -57.7408     0.0000    18.0000 </r>
       <r>   -57.5042     0.0000    18.0000 </r>
       <r>   -57.2677     0.0000    18.0000 </r>
       <r>   -57.0312     0.0000    18.0000 </r>
       <r>   -56.7947     0.0000    18.0000 </r>
       <r>   -56.5582     0.0000    18.0000 </r>
       <r>   -56.3216     0.0000    18.0000 </r>
       <r>   -56.0851     0.0000    18.0000 </r>
       <r>   -55.8486     0.0000    18.0000 </r>
       <r>   -55.6121     0.0000    18.0000 </r>
       <r>   -55.3756     0.0000    18.0000 </r>
       <r>   -55.1390     0.0000    18.0000 </r>
       <r>   -54.9025     0.0000    18.0000 </r>
       <r>   -54.6660     0.0000    18.0000 </r>
       <r>   -54.4295     0.0000    18.0000 </r>
       <r>   -54.1930     0.0000    18.0000 </r>
       <r>   -53.9564     0.0000    18.0000 </r>
       <r>   -53.7199     0.0000    18.0000 </r>
       <r>   -53.4834     0.0000    18.0000 </r>
       <r>   -53.2469     0.0000    18.0000 </r>
       <r>   -53.0104     0.0000    18.0000 </r>
       <r>   -52.7739     0.0000    18.0000 </r>
       <r>   -52.5373     0.0000    18.0000 </r>
       <r>   -52.3008     0.0000    18.0000 </r>
       <r>   -52.0643     0.0000    18.0000 </r>
       <r>   -51.8278     0.0000    18.0000 </r>
       <r>   -51.5913     0.0000    18.0000 </r>
       <r>   -51.3547     0.0000    18.0000 </r>
       <r>   -51.1182     0.0000    18.0000 </r>
       <r>   -50.8817     0.0000    18.0000 </r>
       <r>   -50.6452     0.0000    18.0000 </r>
       <r>   -50.4087     0.0000    18.0000 </r>
       <r>   -50.1721     0.0000    18.0000 </r>
       <r>   -49.9356     0.0000    18.0000 </r>
       <r>   -49.6991     0.0000    18.0000 </r>
       <r>   -49.4626     0.0000    18.0000 </r>
       <r>   -49.2261     0.0000    18.0000 </r>
       <r>   -48.9895     0.0000    18.0000 </r>
       <r>   -48.7530     0.0000    18.0000 </r>
       <r>   -48.5165     0.0000    18.0000 </r>
       <r>   -48.2800     0.0000    18.0000 </r>
       <r>   -48.0435     0.0000    18.0000 </r>
       <r>   -47.8069     0.0000    18.0000 </r>
       <r>   -47.5704     0.0000    18.0000 </r>
       <r>   -47.3339     0.0000    18.0000 </r>
       <r>   -47.0974     0.0000    18.0000 </r>
       <r>   -46.8609     0.0000    18.0000 </r>
       <r>   -46.6243     0.0000    18.0000 </r>
       <r>   -46.3878     0.0000    18.0000 </r>
       <r>   -46.1513     0.0000    18.0000 </r>
       <r>   -45.9148     0.0000    18.0000 </r>
       <r>   -45.6783     0.0000    18.0000 </r>
       <r>   -45.4417     0.0000    18.0000 </r>
       <r>   -45.2052     0.0000    18.0000 </r>
       <r>   -44.9687     0.0000    18.0000 </r>
       <r>   -44.7322     0.0000    18.0000 </r>
       <r>   -44.4957     0.0000    18.0000 </r>
       <r>   -44.2592     0.0000    18.0000 </r>
       <r>   -44.0226     0.0000    18.0000 </r>
       <r>   -43.7861     0.0000    18.0000 </r>
       <r>   -43.5496     0.0000    18.0000 </r>
       <r>   -43.3131     0.0000    18.0000 </r>
       <r>   -43.0766     0.0000    18.0000 </r>
       <r>   -42.8400     0.0000    18.0000 </r>
       <r>   -42.6035     0.0000    18.0000 </r>
       <r>   -42.3670     0.0000    18.0000 </r>
       <r>   -42.1305     0.0000    18.0000 </r>
       <r>   -41.8940     0.0000    18.0000 </r>
       <r>   -41.6574     0.0000    18.0000 </r>
       <r>   -41.4209     0.0000    18.0000 </r>
       <r>   -41.1844     0.0000    18.0000 </r>
       <r>   -40.9479     0.0000    18.0000 </r>
       <r>   -40.7114     0.0000    18.0000 </r>
       <r>   -40.4748     0.0000    18.0000 </r>
       <r>   -40.2383     0.0000    18.0000 </r>
       <r>   -40.0018     0.0000    18.0000 </r>
       <r>   -39.7653     0.0000    18.0000 </r>
       <r>   -39.5288     0.0000    18.0000 </r>
       <r>   -39.2922     0.0000    18.0000 </r>
       <r>   -39.0557     0.0000    18.0000 </r>
       <r>   -38.8192     0.0000    18.0000 </r>
       <r>   -38.5827     0.0000    18.0000 </r>
       <r>   -38.3462     0.0000    18.0000 </r>
       <r>   -38.1096     0.0000    18.0000 </r>
       <r>   -37.8731     0.0000    18.0000 </r>
       <r>   -37.6366     0.0000    18.0000 </r>
       <r>   -37.4001     0.0000    18.0000 </r>
       <r>   -37.1636     0.0000    18.0000 </r>
       <r>   -36.9271     7.3158    19.7303 </r>
       <r>   -36.6905    57.2299    33.2663 </r>
       <r>   -36.4540    92.1004    55.0499 </r>
       <r>   -36.2175    71.6149    71.9882 </r>
       <r>   -35.9810     0.0500    72.0000 </r>
       <r>   -35.7445     0.0000    72.0000 </r>
       <r>   -35.5079     0.0000    72.0000 </r>
       <r>   -35.2714     0.0000    72.0000 </r>
       <r>   -35.0349     0.0000    72.0000 </r>
       <r>   -34.7984     0.0000    72.0000 </r>
       <r>   -34.5619     0.0000    72.0000 </r>
       <r>   -34.3253     0.0000    72.0000 </r>
       <r>   -34.0888     0.0000    72.0000 </r>
       <r>   -33.8523     0.0000    72.0000 </r>
       <r>   -33.6158     0.0000    72.0000 </r>
       <r>   -33.3793     0.0000    72.0000 </r>
       <r>   -33.1427     0.0000    72.0000 </r>
       <r>   -32.9062     0.0000    72.0000 </r>
       <r>   -32.6697     0.0000    72.0000 </r>
       <r>   -32.4332     0.0000    72.0000 </r>
       <r>   -32.1967     0.0000    72.0000 </r>
       <r>   -31.9601     0.0000    72.0000 </r>
       <r>   -31.7236     0.0000    72.0000 </r>
       <r>   -31.4871     0.0000    72.0000 </r>
       <r>   -31.2506     0.0000    72.0000 </r>
       <r>   -31.0141     0.0000    72.0000 </r>
       <r>   -30.7775     0.0000    72.0000 </r>
       <r>   -30.5410     0.0000    72.0000 </r>
       <r>   -30.3045     0.0000    72.0000 </r>
       <r>   -30.0680     0.0000    72.0000 </r>
       <r>   -29.8315     0.0000    72.0000 </r>
       <r>   -29.5949     0.0000    72.0000 </r>
       <r>   -29.3584     0.0000    72.0000 </r>
       <r>   -29.1219     0.0000    72.0000 </r>
       <r>   -28.8854     0.0000    72.0000 </r>
       <r>   -28.6489     0.0000    72.0000 </r>
       <r>   -28.4124     0.0000    72.0000 </r>
       <r>   -28.1758     0.0000    72.0000 </r>
       <r>   -27.9393     0.0000    72.0000 </r>
       <r>   -27.7028     0.0000    72.0000 </r>
       <r>   -27.4663     0.0000    72.0000 </r>
       <r>   -27.2298     0.0000    72.0000 </r>
       <r>   -26.9932     0.0000    72.0000 </r>
       <r>   -26.7567     0.0000    72.0000 </r>
       <r>   -26.5202     0.0000    72.0000 </r>
       <r>   -26.2837     0.0000    72.0000 </r>
       <r>   -26.0472     0.0000    72.0000 </r>
       <r>   -25.8106     0.0000    72.0000 </r>
       <r>   -25.5741     0.0000    72.0000 </r>
       <r>   -25.3376     0.0000    72.0000 </r>
       <r>   -25.1011     0.0000    72.0000 </r>
       <r>   -24.8646     0.0000    72.0000 </r>
       <r>   -24.6280     0.0000    72.0000 </r>
       <r>   -24.3915     0.0000    72.0000 </r>
       <r>   -24.1550     0.0000    72.0000 </r>
       <r>   -23.9185     0.0000    72.0000 </r>
       <r>   -23.6820     0.0000    72.0000 </r>
       <r>   -23.4454     0.0000    72.0000 </r>
       <r>   -23.2089     0.0000    72.0000 </r>
       <r>   -22.9724     0.0000    72.0000 </r>
       <r>   -22.7359     0.0000    72.0000 </r>
       <r>   -22.4994     0.0000    72.0000 </r>
       <r>   -22.2628     0.0000    72.0000 </r>
       <r>   -22.0263     0.0000    72.0000 </r>
       <r>   -21.7898     0.0000    72.0000 </r>
       <r>   -21.5533     0.0000    72.0000 </r>
       <r>   -21.3168     0.0000    72.0000 </r>
       <r>   -21.0802     0.0000    72.0000 </r>
       <r>   -20.8437     0.0000    72.0000 </r>
       <r>   -20.6072     0.0000    72.0000 </r>
       <r>   -20.3707     0.0000    72.0000 </r>
       <r>   -20.1342     0.0000    72.0000 </r>
       <r>   -19.8977     0.0000    72.0000 </r>
       <r>   -19.6611     0.0000    72.0000 </r>
       <r>   -19.4246     0.0000    72.0000 </r>
       <r>   -19.1881     0.0000    72.0000 </r>
       <r>   -18.9516     0.0000    72.0000 </r>
       <r>   -18.7151     0.0000    72.0000 </r>
       <r>   -18.4785     0.0000    72.0000 </r>
       <r>   -18.2420     0.0000    72.0000 </r>
       <r>   -18.0055     0.0000    72.0000 </r>
       <r>   -17.7690     0.0000    72.0000 </r>
       <r>   -17.5325     0.0000    72.0000 </r>
       <r>   -17.2959     0.0000    72.0000 </r>
       <r>   -17.0594     0.0000    72.0000 </r>
       <r>   -16.8229     0.0000    72.0000 </r>
       <r>   -16.5864     0.0000    72.0000 </r>
       <r>   -16.3499     0.0000    72.0000 </r>
       <r>   -16.1133     0.0000    72.0000 </r>
       <r>   -15.8768     0.0000    72.0000 </r>
       <r>   -15.6403     0.1056    72.0250 </r>
       <r>   -15.4038     4.1156    72.9984 </r>
       <r>   -15.1673     4.4729    74.0563 </r>
       <r>   -14.9307     5.3294    75.3168 </r>
       <r>   -14.6942     6.5222    76.8595 </r>
       <r>   -14.4577    12.6663    79.8553 </r>
       <r>   -14.2212    20.1866    84.6298 </r>
       <r>   -13.9847    25.7361    90.7169 </r>
       <r>   -13.7481    25.2289    96.6841 </r>
       <r>   -13.5116    20.0012   101.4147 </r>
       <r>   -13.2751     7.9349   103.2915 </r>
       <r>   -13.0386    12.3633   106.2156 </r>
       <r>   -12.8021     7.5442   108.0000 </r>
       <r>   -12.5656     0.0000   108.0000 </r>
       <r>   -12.3290     0.0000   108.0000 </r>
       <r>   -12.0925     0.0000   108.0000 </r>
       <r>   -11.8560     0.0000   108.0000 </r>
       <r>   -11.6195     0.0000   108.0000 </r>
       <r>   -11.3830     0.0000   108.0000 </r>
       <r>   -11.1464     0.0000   108.0000 </r>
       <r>   -10.9099     0.0000   108.0000 </r>
       <r>   -10.6734     0.0000   108.0000 </r>
       <r>   -10.4369     0.0000   108.0000 </r>
       <r>   -10.2004     0.0000   108.0000 </r>
       <r>    -9.9638     0.0000   108.0000 </r>
       <r>    -9.7273     0.0000   108.0000 </r>
       <r>    -9.4908     0.0000   108.0000 </r>
       <r>    -9.2543     0.0000   108.0000 </r>
       <r>    -9.0178     0.0000   108.0000 </r>
       <r>    -8.7812     0.0000   108.0000 </r>
       <r>    -8.5447     0.0000   108.0000 </r>
       <r>    -8.3082     0.0000   108.0000 </r>
       <r>    -8.0717     0.0000   108.0000 </r>
       <r>    -7.8352     0.0000   108.0000 </r>
       <r>    -7.5986     1.0156   108.2402 </r>
       <r>    -7.3621     7.0653   109.9113 </r>
       <r>    -7.1256     8.9120   112.0192 </r>
       <r>    -6.8891    14.7139   115.4993 </r>
       <r>    -6.6526    18.3477   119.8389 </r>
       <r>    -6.4160    21.3571   124.8902 </r>
       <r>    -6.1795    27.8547   131.4784 </r>
       <r>    -5.9430    25.2911   137.4602 </r>
       <r>    -5.7065    18.6917   141.8812 </r>
       <r>    -5.4700    19.2663   146.4380 </r>
       <r>    -5.2334    24.6778   152.2748 </r>
       <r>    -4.9969    34.6447   160.4690 </r>
       <r>    -4.7604    24.9324   166.3660 </r>
       <r>    -4.5239    18.0160   170.6271 </r>
       <r>    -4.2874    27.4102   177.1102 </r>
       <r>    -4.0509    27.1922   183.5416 </r>
       <r>    -3.8143    23.9990   189.2179 </r>
       <r>    -3.5778    25.2897   195.1994 </r>
       <r>    -3.3413    11.8165   197.9942 </r>
       <r>    -3.1048    17.3595   202.1001 </r>
       <r>    -2.8683    16.1621   205.9227 </r>
       <r>    -2.6317    16.6149   209.8525 </r>
       <r>    -2.3952    18.1588   214.1474 </r>
       <r>    -2.1587    25.2099   220.1100 </r>
       <r>    -1.9222    26.0565   226.2729 </r>
       <r>    -1.6857    17.8313   230.4904 </r>
       <r>    -1.4491    13.2994   233.6359 </r>
       <r>    -1.2126     1.5393   234.0000 </r>
       <r>    -0.9761     0.0000   234.0000 </r>
       <r>    -0.7396     0.8399   234.1987 </r>
       <r>    -0.5031    10.0629   236.5787 </r>
       <r>    -0.2665    14.8493   240.0909 </r>
       <r>    -0.0300    21.1488   245.0930 </r>
       <r>     0.2065    24.7556   250.9482 </r>
       <r>     0.4430     9.8831   253.2857 </r>
       <r>     0.6795    18.9342   257.7640 </r>
       <r>     0.9161     7.5104   259.5404 </r>
       <r>     1.1526    29.3386   266.4795 </r>
       <r>     1.3891    32.9540   274.2738 </r>
       <r>     1.6256    15.3654   277.9080 </r>
       <r>     1.8621     7.0951   279.5861 </r>
       <r>     2.0987     1.7499   280.0000 </r>
       <r>     2.3352     0.0000   280.0000 </r>
       <r>     2.5717     0.0000   280.0000 </r>
       <r>     2.8082     0.0000   280.0000 </r>
       <r>     3.0447     0.0000   280.0000 </r>
       <r>     3.2813     0.0000   280.0000 </r>
       <r>     3.5178     0.0000   280.0000 </r>
       <r>     3.7543     0.0000   280.0000 </r>
       <r>     3.9908     0.0000   280.0000 </r>
       <r>     4.2273     0.0000   280.0000 </r>
       <r>     4.4638     0.0000   280.0000 </r>
       <r>     4.7004     0.0000   280.0000 </r>
       <r>     4.9369     0.0000   280.0000 </r>
       <r>     5.1734     0.0000   280.0000 </r>
      </set>
     </set>
    </array>
   </total>
  </dos>
 </calculation>
 <structure name="finalpos" >
  <crystal>
   <varray name="basis" >
    <v>       9.56424100       0.00000000       0.00000000 </v>
    <v>      -4.78212000       8.28287600       0.00000000 </v>
    <v>      -0.00000000       0.00000000      18.15827300 </v>
   </varray>
   <i name="volume">   1438.48789588 </i>
   <varray name="rec_basis" >
    <v>       0.10455613       0.06036550       0.00000000 </v>
    <v>       0.00000000       0.12073101      -0.00000000 </v>
    <v>       0.00000000      -0.00000000       0.05507132 </v>
   </varray>
  </crystal>
  <varray name="positions" >
   <v>       0.04033657       0.01692807       0.49288853 </v>
   <v>       0.31929510       0.34932777       0.49916487 </v>
   <v>       0.65153331       0.01745394       0.50081579 </v>
   <v>       0.32456177       0.96676844       0.49903955 </v>
   <v>       0.37179809       0.68886637       0.50421038 </v>
   <v>       0.69756621       0.35197245       0.49938548 </v>
   <v>       0.96514287       0.29332474       0.49715467 </v>
   <v>       0.64124893       0.62375526       0.49977882 </v>
   <v>       0.98738183       0.69153946       0.50027325 </v>
   <v>       0.54905319       0.11461130       0.58525986 </v>
   <v>       0.21868905       0.11412394       0.58813586 </v>
   <v>       0.11417672       0.23900861       0.40771729 </v>
   <v>       0.21201840       0.45114861       0.58697492 </v>
   <v>       0.11019193       0.55474786       0.42985432 </v>
   <v>       0.22466584       0.77507977       0.58772758 </v>
   <v>       0.12497125       0.89129002       0.40142276 </v>
   <v>       0.43828533       0.22906896       0.42800046 </v>
   <v>       0.45351667       0.89108031       0.41272799 </v>
   <v>       0.55119223       0.42369778       0.59502745 </v>
   <v>       0.56775664       0.77219456       0.59208272 </v>
   <v>       0.44429686       0.55793398       0.41066804 </v>
   <v>       0.89281111       0.10003281       0.58382721 </v>
   <v>       0.76518029       0.22106886       0.40788506 </v>
   <v>       0.89636755       0.45264047       0.58308916 </v>
   <v>       0.77412039       0.55262771       0.40974031 </v>
   <v>       0.88241966       0.78410738       0.58364496 </v>
   <v>       0.78368373       0.87572707       0.42802143 </v>
  </varray>
 </structure>
</modeling>
