<?xml version="1.0" encoding="ISO-8859-1"?>
<modeling>
 <generator>
  <i name="program" type="string">vasp </i>
  <i name="version" type="string">6.2.0  </i>
  <i name="subversion" type="string">18Jan21 (build Mar 25 2021 14:28:09) complex                          parallel </i>
  <i name="platform" type="string">LinuxGNU </i>
  <i name="date" type="string">2021 12 20 </i>
  <i name="time" type="string">09:48:10 </i>
 </generator>
 <incar>
  <i type="string" name="SYSTEM">benzene</i>
  <i type="int" name="ISTART">     0</i>
  <i type="string" name="PREC">Accurate</i>
  <i type="string" name="ALGO">Normal</i>
  <i type="int" name="NELM">   200</i>
  <i type="int" name="IBRION">    -1</i>
  <i name="EDIFF">      0.00000100</i>
  <i type="int" name="NSW">     0</i>
  <i name="ENCUT">    600.00000000</i>
  <i type="logical" name="LREAL"> F  </i>
  <i type="int" name="ISMEAR">     0</i>
  <i name="SIGMA">      0.05000000</i>
  <i type="logical" name="LWAVE"> F  </i>
  <i type="logical" name="LCHARG"> T  </i>
  <i type="string" name="GGA">PE</i>
 </incar>
 <primitive_cell>
  <structure name="primitive_cell" >
   <crystal>
    <varray name="basis" >
     <v>      10.58354422       0.00000000       0.00000000 </v>
     <v>       0.00000000      10.58354422       0.00000000 </v>
     <v>       0.00000000       0.00000000      10.58354422 </v>
    </varray>
    <i name="volume">   1185.47769178 </i>
    <varray name="rec_basis" >
     <v>       0.09448631       0.00000000       0.00000000 </v>
     <v>       0.00000000       0.09448631       0.00000000 </v>
     <v>       0.00000000       0.00000000       0.09448631 </v>
    </varray>
   </crystal>
   <varray name="positions" >
    <v>       0.50037775       0.62986875       0.49884490 </v>
    <v>       0.38620345       0.56103230       0.50255130 </v>
    <v>       0.38247605       0.42616840       0.49850550 </v>
    <v>       0.49550200       0.36722955       0.49023465 </v>
    <v>       0.61522690       0.43441715       0.50472745 </v>
    <v>       0.61588875       0.56829470       0.49964415 </v>
    <v>       0.49869175       0.73128970       0.48833670 </v>
    <v>       0.30127830       0.61987450       0.51584395 </v>
    <v>       0.28990225       0.38679060       0.49423105 </v>
    <v>       0.51066550       0.27548600       0.49893400 </v>
    <v>       0.69825335       0.37316850       0.50880520 </v>
    <v>       0.70553385       0.62637975       0.49934115 </v>
   </varray>
  </structure>
  <varray name="primitive_index" >
   <v type="int" >        1 </v>
   <v type="int" >        2 </v>
   <v type="int" >        3 </v>
   <v type="int" >        4 </v>
   <v type="int" >        5 </v>
   <v type="int" >        6 </v>
   <v type="int" >        7 </v>
   <v type="int" >        8 </v>
   <v type="int" >        9 </v>
   <v type="int" >       10 </v>
   <v type="int" >       11 </v>
   <v type="int" >       12 </v>
  </varray>
 </primitive_cell>
 <kpoints>
  <generation param="Gamma">
   <v type="int" name="divisions">       1        1        1 </v>
   <v name="usershift">      0.00000000       0.00000000       0.00000000 </v>
   <v name="genvec1">      1.00000000       0.00000000       0.00000000 </v>
   <v name="genvec2">      0.00000000       1.00000000       0.00000000 </v>
   <v name="genvec3">      0.00000000       0.00000000       1.00000000 </v>
   <v name="shift">      0.00000000       0.00000000       0.00000000 </v>
  </generation>
  <varray name="kpointlist" >
   <v>       0.00000000       0.00000000       0.00000000 </v>
  </varray>
  <varray name="weights" >
   <v>       1.00000000 </v>
  </varray>
 </kpoints>
 <parameters>
  <separator name="general" >
   <i type="string" name="SYSTEM">benzene</i>
   <i type="logical" name="LCOMPAT"> F  </i>
  </separator>
  <separator name="electronic" >
   <i type="string" name="PREC">accura</i>
   <i name="ENMAX">    600.00000000</i>
   <i name="ENAUG">    644.87300000</i>
   <i name="EDIFF">      0.00000100</i>
   <i type="int" name="IALGO">    38</i>
   <i type="int" name="IWAVPR">    10</i>
   <i type="int" name="NBANDS">    24</i>
   <i type="int" name="NBANDSLOW">    -1</i>
   <i type="int" name="NBANDSHIGH">    -1</i>
   <i name="NELECT">     30.00000000</i>
   <i type="int" name="TURBO">     0</i>
   <i type="int" name="IRESTART">     0</i>
   <i type="int" name="NREBOOT">     0</i>
   <i type="int" name="NMIN">     0</i>
   <i name="EREF">      0.00000000</i>
   <separator name="electronic smearing" >
    <i type="int" name="ISMEAR">     0</i>
    <i name="SIGMA">      0.05000000</i>
    <i name="KSPACING">      0.50000000</i>
    <i type="logical" name="KGAMMA"> T  </i>
    <i type="logical" name="KBLOWUP"> T  </i>
   </separator>
   <separator name="electronic projectors" >
    <i type="logical" name="LREAL"> F  </i>
    <v name="ROPT">      0.00000000      0.00000000</v>
    <i type="int" name="LMAXPAW">  -100</i>
    <i type="int" name="LMAXMIX">     2</i>
    <i type="logical" name="NLSPLINE"> F  </i>
   </separator>
   <separator name="electronic startup" >
    <i type="int" name="ISTART">     0</i>
    <i type="int" name="ICHARG">     2</i>
    <i type="int" name="INIWAV">     1</i>
   </separator>
   <separator name="electronic spin" >
    <i type="int" name="ISPIN">     1</i>
    <i type="logical" name="LNONCOLLINEAR"> F  </i>
    <v name="MAGMOM">      1.00000000      1.00000000      1.00000000      1.00000000      1.00000000      1.00000000      1.00000000      1.00000000      1.00000000      1.00000000      1.00000000      1.00000000</v>
    <i name="NUPDOWN">     -1.00000000</i>
    <i type="logical" name="LSORBIT"> F  </i>
    <v name="SAXIS">      0.00000000      0.00000000      1.00000000</v>
    <i type="logical" name="LSPIRAL"> F  </i>
    <v name="QSPIRAL">      0.00000000      0.00000000      0.00000000</v>
    <i type="logical" name="LZEROZ"> F  </i>
   </separator>
   <separator name="electronic exchange-correlation" >
    <i type="logical" name="LASPH"> F  </i>
    <i type="logical" name="LMETAGGA"> F  </i>
   </separator>
   <separator name="electronic convergence" >
    <i type="int" name="NELM">   200</i>
    <i type="int" name="NELMDL">    -5</i>
    <i type="int" name="NELMIN">     2</i>
    <i name="ENINI">    600.00000000</i>
    <separator name="electronic convergence detail" >
     <i type="logical" name="LDIAG"> T  </i>
     <i type="logical" name="LSUBROT"> F  </i>
     <i name="WEIMIN">      0.00000000</i>
     <i name="EBREAK">      0.00000001</i>
     <i name="DEPER">      0.30000000</i>
     <i type="int" name="NRMM">     4</i>
     <i name="TIME">      0.40000000</i>
    </separator>
   </separator>
   <separator name="electronic mixer" >
    <i name="AMIX">      0.40000000</i>
    <i name="BMIX">      1.00000000</i>
    <i name="AMIN">      0.10000000</i>
    <i name="AMIX_MAG">      1.60000000</i>
    <i name="BMIX_MAG">      1.00000000</i>
    <separator name="electronic mixer details" >
     <i type="int" name="IMIX">     4</i>
     <i type="logical" name="MIXFIRST"> F  </i>
     <i type="int" name="MAXMIX">   -45</i>
     <i name="WC">    100.00000000</i>
     <i type="int" name="INIMIX">     1</i>
     <i type="int" name="MIXPRE">     1</i>
     <i type="int" name="MREMOVE">     5</i>
    </separator>
   </separator>
   <separator name="electronic dipolcorrection" >
    <i type="logical" name="LDIPOL"> F  </i>
    <i type="logical" name="LMONO"> F  </i>
    <i type="int" name="IDIPOL">     0</i>
    <i name="EPSILON">      1.00000000</i>
    <v name="DIPOL">   -100.00000000   -100.00000000   -100.00000000</v>
    <i name="EFIELD">      0.00000000</i>
   </separator>
  </separator>
  <separator name="grids" >
   <i type="int" name="NGX">    90</i>
   <i type="int" name="NGY">    90</i>
   <i type="int" name="NGZ">    90</i>
   <i type="int" name="NGXF">   180</i>
   <i type="int" name="NGYF">   180</i>
   <i type="int" name="NGZF">   180</i>
   <i type="logical" name="ADDGRID"> F  </i>
  </separator>
  <separator name="ionic" >
   <i type="int" name="NSW">     0</i>
   <i type="int" name="IBRION">    -1</i>
   <i type="int" name="MDALGO">     0</i>
   <i type="int" name="ISIF">     2</i>
   <i name="PSTRESS">      0.00000000</i>
   <i name="EDIFFG">      0.00001000</i>
   <i type="int" name="NFREE">     0</i>
   <i name="POTIM">      0.50000000</i>
   <i name="SMASS">     -3.00000000</i>
   <i name="SCALEE">      1.00000000</i>
  </separator>
  <separator name="ionic md" >
   <i name="TEBEG">      0.00010000</i>
   <i name="TEEND">      0.00010000</i>
   <i type="int" name="NBLOCK">     1</i>
   <i type="int" name="KBLOCK">     1</i>
   <i type="int" name="NPACO">   256</i>
   <i name="APACO">     16.00000000</i>
  </separator>
  <separator name="symmetry" >
   <i type="int" name="ISYM">     2</i>
   <i name="SYMPREC">      0.00001000</i>
  </separator>
  <separator name="dos" >
   <i type="int" name="LORBIT">     0</i>
   <v name="RWIGS">     -1.00000000     -1.00000000</v>
   <i type="int" name="NEDOS">   301</i>
   <i name="EMIN">     10.00000000</i>
   <i name="EMAX">    -10.00000000</i>
   <i name="EFERMI">      0.00000000</i>
  </separator>
  <separator name="writing" >
   <i type="int" name="NWRITE">     2</i>
   <i type="logical" name="LWAVE"> F  </i>
   <i type="logical" name="LDOWNSAMPLE"> F  </i>
   <i type="logical" name="LCHARG"> T  </i>
   <i type="logical" name="LPARD"> F  </i>
   <i type="logical" name="LVTOT"> F  </i>
   <i type="logical" name="LVHAR"> F  </i>
   <i type="logical" name="LELF"> F  </i>
   <i type="logical" name="LOPTICS"> F  </i>
   <v name="STM">      0.00000000      0.00000000      0.00000000      0.00000000      0.00000000      0.00000000      0.00000000</v>
  </separator>
  <separator name="performance" >
   <i type="int" name="NPAR">     4</i>
   <i type="int" name="NSIM">     4</i>
   <i type="int" name="NBLK">    -1</i>
   <i type="logical" name="LPLANE"> T  </i>
   <i type="logical" name="LSCALAPACK"> T  </i>
   <i type="logical" name="LSCAAWARE"> F  </i>
   <i type="logical" name="LSCALU"> F  </i>
   <i type="logical" name="LASYNC"> F  </i>
   <i type="logical" name="LORBITALREAL"> F  </i>
  </separator>
  <separator name="miscellaneous" >
   <i type="int" name="IDIOT">     3</i>
   <i type="int" name="PHON_NSTRUCT">    -1</i>
   <i type="logical" name="LMUSIC"> F  </i>
   <v name="POMASS">     12.01100000      1.00000000</v>
   <v name="DARWINR">      0.00000000      0.00000000</v>
   <v name="DARWINV">      1.00000000      1.00000000</v>
   <i type="logical" name="LCORR"> T  </i>
  </separator>
  <i type="logical" name="GGA_COMPAT"> T  </i>
  <i type="logical" name="LBERRY"> F  </i>
  <i type="int" name="ICORELEVEL">     0</i>
  <i type="logical" name="LDAU"> F  </i>
  <i type="int" name="I_CONSTRAINED_M">     0</i>
  <separator name="electronic exchange-correlation" >
   <i type="string" name="GGA">PE</i>
   <i type="int" name="VOSKOWN">     0</i>
   <i type="logical" name="LHFCALC"> F  </i>
   <i type="string" name="PRECFOCK"></i>
   <i type="logical" name="LSYMGRAD"> F  </i>
   <i type="logical" name="LHFONE"> F  </i>
   <i type="logical" name="LRHFCALC"> F  </i>
   <i type="logical" name="LTHOMAS"> F  </i>
   <i type="logical" name="LMODELHF"> F  </i>
   <i type="logical" name="LFOCKACE"> F  </i>
   <i name="ENCUT4O">     -1.00000000</i>
   <i type="int" name="EXXOEP">     0</i>
   <i type="int" name="FOURORBIT">     0</i>
   <i name="AEXX">      0.00000000</i>
   <i name="HFALPHA">      0.00000000</i>
   <i name="MCALPHA">      0.00000000</i>
   <i name="ALDAX">      1.00000000</i>
   <i name="AGGAX">      1.00000000</i>
   <i name="ALDAC">      1.00000000</i>
   <i name="AGGAC">      1.00000000</i>
   <i type="int" name="NKREDX">     1</i>
   <i type="int" name="NKREDY">     1</i>
   <i type="int" name="NKREDZ">     1</i>
   <i type="logical" name="SHIFTRED"> F  </i>
   <i type="logical" name="ODDONLY"> F  </i>
   <i type="logical" name="EVENONLY"> F  </i>
   <i type="int" name="LMAXFOCK">     0</i>
   <i type="int" name="NMAXFOCKAE">     0</i>
   <i type="logical" name="LFOCKAEDFT"> F  </i>
   <i name="HFSCREEN">      0.00000000</i>
   <i name="HFSCREENC">      0.00000000</i>
   <i type="int" name="NBANDSGWLOW">     0</i>
  </separator>
  <separator name="vdW DFT" >
   <i type="logical" name="LUSE_VDW"> F  </i>
   <i name="Zab_VDW">     -0.84910000</i>
   <i name="PARAM1">      0.12340000</i>
   <i name="PARAM2">      1.00000000</i>
   <i name="PARAM3">      0.00000000</i>
  </separator>
  <separator name="model GW" >
   <i type="int" name="MODEL_GW">     0</i>
   <i name="MODEL_EPS0">     59.27388459</i>
   <i name="MODEL_ALPHA">      1.00000000</i>
  </separator>
  <separator name="linear response parameters" >
   <i type="logical" name="LEPSILON"> F  </i>
   <i type="logical" name="LRPA"> F  </i>
   <i type="logical" name="LNABLA"> F  </i>
   <i type="logical" name="LVEL"> F  </i>
   <i type="int" name="KINTER">     0</i>
   <i name="CSHIFT">      0.10000000</i>
   <i name="OMEGAMAX">     -1.00000000</i>
   <i name="DEG_THRESHOLD">      0.00200000</i>
   <i name="RTIME">     -0.10000000</i>
   <i name="WPLASMAI">      0.00000000</i>
   <v name="DFIELD">      0.00000000      0.00000000      0.00000000</v>
   <v name="WPLASMA">      0.00000000      0.00000000      0.00000000      0.00000000      0.00000000      0.00000000      0.00000000      0.00000000      0.00000000</v>
  </separator>
  <separator name="orbital magnetization" >
   <i type="logical" name="NUCIND"> F  </i>
   <v name="MAGPOS">      0.00000000      0.00000000      0.00000000</v>
   <i type="logical" name="LNICSALL"> T  </i>
   <i type="logical" name="ORBITALMAG"> F  </i>
   <i type="logical" name="LMAGBLOCH"> F  </i>
   <i type="logical" name="LCHIMAG"> F  </i>
   <i type="logical" name="LGAUGE"> T  </i>
   <i type="int" name="MAGATOM">     0</i>
   <v name="MAGDIPOL">      0.00000000      0.00000000      0.00000000</v>
   <v name="AVECCONST">      0.00000000      0.00000000      0.00000000</v>
  </separator>
  <separator name="response functions" >
   <i type="logical" name="LFINITE_TEMPERATURE"> F  </i>
   <i type="logical" name="LADDER"> F  </i>
   <i type="logical" name="LRPAFORCE"> F  </i>
   <i type="logical" name="LFXC"> F  </i>
   <i type="logical" name="LHARTREE"> T  </i>
   <i type="int" name="IBSE">     0</i>
   <v type="int" name="KPOINT">    -1     0     0     0</v>
   <i type="logical" name="LTCTC"> F  </i>
   <i type="logical" name="LTCTE"> F  </i>
   <i type="logical" name="LTETE"> F  </i>
   <i type="logical" name="LTRIPLET"> F  </i>
   <i type="logical" name="LFXCEPS"> F  </i>
   <i type="logical" name="LFXHEG"> F  </i>
   <i type="int" name="NATURALO">     2</i>
   <i type="logical" name="LHOLEGF"> F  </i>
   <i type="logical" name="L2ORDER"> F  </i>
   <i type="logical" name="LDMP1"> F  </i>
   <i type="logical" name="LMP2LT"> F  </i>
   <i type="logical" name="LSMP2LT"> F  </i>
   <i type="logical" name="LGWLF"> F  </i>
   <i name="ENCUTGW">     -2.00000000</i>
   <i name="ENCUTGWSOFT">     -2.00000000</i>
   <i name="ENCUTLF">     -1.00000000</i>
   <i type="logical" name="LESF_SPLINES"> F  </i>
   <i type="int" name="LMAXMP2">    -1</i>
   <i name="SCISSOR">      0.00000000</i>
   <i type="int" name="NOMEGA">     0</i>
   <i type="int" name="NOMEGAR">     0</i>
   <i type="int" name="NBANDSGW">    -1</i>
   <i type="int" name="NBANDSO">    -1</i>
   <i type="int" name="NBANDSV">    -1</i>
   <i type="int" name="NELM">   200</i>
   <i type="int" name="NELMHF">     1</i>
   <i type="int" name="DIM">     3</i>
   <i type="int" name="IESPILON">     4</i>
   <i type="int" name="ANTIRES">     0</i>
   <i name="OMEGAMAX">    -30.00000000</i>
   <i name="OMEGAMIN">    -30.00000000</i>
   <i name="OMEGATL">   -200.00000000</i>
   <i type="int" name="OMEGAGRID">     0</i>
   <i name="CSHIFT">     -0.10000000</i>
   <i type="logical" name="LSELFENERGY"> F  </i>
   <i type="logical" name="LSPECTRAL"> F  </i>
   <i type="logical" name="LSPECTRALGW"> F  </i>
   <i type="logical" name="LSINGLES"> F  </i>
   <i type="logical" name="LFERMIGW"> F  </i>
   <i type="logical" name="ODDONLYGW"> F  </i>
   <i type="logical" name="EVENONLYGW"> F  </i>
   <i type="int" name="NKREDLFX">     1</i>
   <i type="int" name="NKREDLFY">     1</i>
   <i type="int" name="NKREDLFZ">     1</i>
   <i type="int" name="MAXMEM">  2800</i>
   <i type="int" name="TELESCOPE">     0</i>
   <i type="int" name="NTAUPAR">    -1</i>
   <i type="int" name="NOMEGAPAR">    -1</i>
   <i name="DAMP_NEWTON">      0.80000001</i>
   <i name="LAMBDA">      1.00000000</i>
  </separator>
  <separator name="External order field" >
   <i name="OFIELD_KAPPA">      0.00000000</i>
   <v name="OFIELD_K">      0.00000000      0.00000000      0.00000000</v>
   <i name="OFIELD_Q6_NEAR">      0.00000000</i>
   <i name="OFIELD_Q6_FAR">      0.00000000</i>
   <i name="OFIELD_A">      0.00000000</i>
  </separator>
 </parameters>
 <atominfo>
  <atoms>      12 </atoms>
  <types>       2 </types>
  <array name="atoms" >
   <dimension dim="1">ion</dimension>
   <field type="string">element</field>
   <field type="int">atomtype</field>
   <set>
    <rc><c>C </c><c>   1</c></rc>
    <rc><c>C </c><c>   1</c></rc>
    <rc><c>C </c><c>   1</c></rc>
    <rc><c>C </c><c>   1</c></rc>
    <rc><c>C </c><c>   1</c></rc>
    <rc><c>C </c><c>   1</c></rc>
    <rc><c>H </c><c>   2</c></rc>
    <rc><c>H </c><c>   2</c></rc>
    <rc><c>H </c><c>   2</c></rc>
    <rc><c>H </c><c>   2</c></rc>
    <rc><c>H </c><c>   2</c></rc>
    <rc><c>H </c><c>   2</c></rc>
   </set>
  </array>
  <array name="atomtypes" >
   <dimension dim="1">type</dimension>
   <field type="int">atomspertype</field>
   <field type="string">element</field>
   <field>mass</field>
   <field>valence</field>
   <field type="string">pseudopotential</field>
   <set>
    <rc><c>   6</c><c>C </c><c>     12.01100000</c><c>      4.00000000</c><c>  PAW_PBE C 08Apr2002                   </c></rc>
    <rc><c>   6</c><c>H </c><c>      1.00000000</c><c>      1.00000000</c><c>  PAW_PBE H 15Jun2001                   </c></rc>
   </set>
  </array>
 </atominfo>
 <structure name="initialpos" >
  <crystal>
   <varray name="basis" >
    <v>      10.58354422       0.00000000       0.00000000 </v>
    <v>       0.00000000      10.58354422       0.00000000 </v>
    <v>       0.00000000       0.00000000      10.58354422 </v>
   </varray>
   <i name="volume">   1185.47769178 </i>
   <varray name="rec_basis" >
    <v>       0.09448631       0.00000000       0.00000000 </v>
    <v>       0.00000000       0.09448631       0.00000000 </v>
    <v>       0.00000000       0.00000000       0.09448631 </v>
   </varray>
  </crystal>
  <varray name="positions" >
   <v>       0.50037775       0.62986875       0.49884490 </v>
   <v>       0.38620345       0.56103230       0.50255130 </v>
   <v>       0.38247605       0.42616840       0.49850550 </v>
   <v>       0.49550200       0.36722955       0.49023465 </v>
   <v>       0.61522690       0.43441715       0.50472745 </v>
   <v>       0.61588875       0.56829470       0.49964415 </v>
   <v>       0.49869175       0.73128970       0.48833670 </v>
   <v>       0.30127830       0.61987450       0.51584395 </v>
   <v>       0.28990225       0.38679060       0.49423105 </v>
   <v>       0.51066550       0.27548600       0.49893400 </v>
   <v>       0.69825335       0.37316850       0.50880520 </v>
   <v>       0.70553385       0.62637975       0.49934115 </v>
  </varray>
 </structure>
 <calculation>
  <scstep>
   <time name="dav">    0.22    0.22</time>
   <time name="total">    0.49    0.49</time>
   <energy>
    <i name="alphaZ">      3.48814018 </i>
    <i name="ewald">   1122.78121525 </i>
    <i name="hartreedc">  -1757.21534286 </i>
    <i name="XCdc">     91.25211025 </i>
    <i name="pawpsdc">    663.93644290 </i>
    <i name="pawaedc">   -667.40614445 </i>
    <i name="eentropy">     -0.00000000 </i>
    <i name="bandstr">   -199.73872517 </i>
    <i name="atom">    957.82965714 </i>
    <i name="e_fr_energy">    214.92735324 </i>
    <i name="e_wo_entrp">    214.92735324 </i>
    <i name="e_0_energy">    214.92735324 </i>
   </energy>
  </scstep>
  <scstep>
   <time name="dav">    0.26    0.26</time>
   <time name="total">    0.26    0.26</time>
   <energy>
    <i name="e_fr_energy">     -4.47997265 </i>
    <i name="e_wo_entrp">     -4.47997265 </i>
    <i name="e_0_energy">     -4.47997265 </i>
   </energy>
  </scstep>
  <scstep>
   <time name="dav">    0.22    0.22</time>
   <time name="total">    0.22    0.22</time>
   <energy>
    <i name="e_fr_energy">    -78.05076108 </i>
    <i name="e_wo_entrp">    -78.05076108 </i>
    <i name="e_0_energy">    -78.05076108 </i>
   </energy>
  </scstep>
  <scstep>
   <time name="dav">    0.19    0.20</time>
   <time name="total">    0.19    0.20</time>
   <energy>
    <i name="e_fr_energy">    -83.45548654 </i>
    <i name="e_wo_entrp">    -83.45548654 </i>
    <i name="e_0_energy">    -83.45548654 </i>
   </energy>
  </scstep>
  <scstep>
   <time name="dav">    0.26    0.26</time>
   <time name="total">    0.30    0.30</time>
   <energy>
    <i name="e_fr_energy">    -83.57072396 </i>
    <i name="e_wo_entrp">    -83.57072396 </i>
    <i name="e_0_energy">    -83.57072396 </i>
   </energy>
  </scstep>
  <scstep>
   <time name="dav">    0.22    0.22</time>
   <time name="total">    0.53    0.53</time>
   <energy>
    <i name="e_fr_energy">    -77.33150738 </i>
    <i name="e_wo_entrp">    -77.33150738 </i>
    <i name="e_0_energy">    -77.33150738 </i>
   </energy>
  </scstep>
  <scstep>
   <time name="dav">    0.26    0.26</time>
   <time name="total">    0.56    0.57</time>
   <energy>
    <i name="e_fr_energy">    -75.51538084 </i>
    <i name="e_wo_entrp">    -75.51538084 </i>
    <i name="e_0_energy">    -75.51538084 </i>
   </energy>
  </scstep>
  <scstep>
   <time name="dav">    0.26    0.26</time>
   <time name="total">    0.57    0.57</time>
   <energy>
    <i name="e_fr_energy">    -75.34398357 </i>
    <i name="e_wo_entrp">    -75.34398357 </i>
    <i name="e_0_energy">    -75.34398357 </i>
   </energy>
  </scstep>
  <scstep>
   <time name="dav">    0.22    0.22</time>
   <time name="total">    0.52    0.52</time>
   <energy>
    <i name="e_fr_energy">    -75.31339685 </i>
    <i name="e_wo_entrp">    -75.31339685 </i>
    <i name="e_0_energy">    -75.31339685 </i>
   </energy>
  </scstep>
  <scstep>
   <time name="dav">    0.24    0.24</time>
   <time name="total">    0.54    0.54</time>
   <energy>
    <i name="e_fr_energy">    -75.30777228 </i>
    <i name="e_wo_entrp">    -75.30777228 </i>
    <i name="e_0_energy">    -75.30777228 </i>
   </energy>
  </scstep>
  <scstep>
   <time name="dav">    0.19    0.20</time>
   <time name="total">    0.50    0.51</time>
   <energy>
    <i name="e_fr_energy">    -75.29986101 </i>
    <i name="e_wo_entrp">    -75.29986101 </i>
    <i name="e_0_energy">    -75.29986101 </i>
   </energy>
  </scstep>
  <scstep>
   <time name="dav">    0.21    0.21</time>
   <time name="total">    0.50    0.50</time>
   <energy>
    <i name="e_fr_energy">    -75.30502604 </i>
    <i name="e_wo_entrp">    -75.30502604 </i>
    <i name="e_0_energy">    -75.30502604 </i>
   </energy>
  </scstep>
  <scstep>
   <time name="dav">    0.20    0.20</time>
   <time name="total">    0.48    0.48</time>
   <energy>
    <i name="e_fr_energy">    -75.31600050 </i>
    <i name="e_wo_entrp">    -75.31600050 </i>
    <i name="e_0_energy">    -75.31600050 </i>
   </energy>
  </scstep>
  <scstep>
   <time name="dav">    0.22    0.22</time>
   <time name="total">    0.50    0.50</time>
   <energy>
    <i name="e_fr_energy">    -75.32122724 </i>
    <i name="e_wo_entrp">    -75.32122724 </i>
    <i name="e_0_energy">    -75.32122724 </i>
   </energy>
  </scstep>
  <scstep>
   <time name="dav">    0.22    0.22</time>
   <time name="total">    0.50    0.50</time>
   <energy>
    <i name="e_fr_energy">    -75.32457583 </i>
    <i name="e_wo_entrp">    -75.32457583 </i>
    <i name="e_0_energy">    -75.32457583 </i>
   </energy>
  </scstep>
  <scstep>
   <time name="dav">    0.22    0.22</time>
   <time name="total">    0.50    0.50</time>
   <energy>
    <i name="e_fr_energy">    -75.32567126 </i>
    <i name="e_wo_entrp">    -75.32567126 </i>
    <i name="e_0_energy">    -75.32567126 </i>
   </energy>
  </scstep>
  <scstep>
   <time name="dav">    0.22    0.22</time>
   <time name="total">    0.50    0.50</time>
   <energy>
    <i name="e_fr_energy">    -75.32626804 </i>
    <i name="e_wo_entrp">    -75.32626804 </i>
    <i name="e_0_energy">    -75.32626804 </i>
   </energy>
  </scstep>
  <scstep>
   <time name="dav">    0.22    0.22</time>
   <time name="total">    0.51    0.52</time>
   <energy>
    <i name="e_fr_energy">    -75.32639866 </i>
    <i name="e_wo_entrp">    -75.32639866 </i>
    <i name="e_0_energy">    -75.32639866 </i>
   </energy>
  </scstep>
  <scstep>
   <time name="dav">    0.20    0.20</time>
   <time name="total">    0.48    0.49</time>
   <energy>
    <i name="e_fr_energy">    -75.32643407 </i>
    <i name="e_wo_entrp">    -75.32643407 </i>
    <i name="e_0_energy">    -75.32643407 </i>
   </energy>
  </scstep>
  <scstep>
   <time name="dav">    0.20    0.20</time>
   <time name="total">    0.49    0.49</time>
   <energy>
    <i name="e_fr_energy">    -75.32644542 </i>
    <i name="e_wo_entrp">    -75.32644542 </i>
    <i name="e_0_energy">    -75.32644542 </i>
   </energy>
  </scstep>
  <scstep>
   <time name="dav">    0.20    0.20</time>
   <time name="total">    0.49    0.50</time>
   <energy>
    <i name="e_fr_energy">    -75.32645050 </i>
    <i name="e_wo_entrp">    -75.32645050 </i>
    <i name="e_0_energy">    -75.32645050 </i>
   </energy>
  </scstep>
  <scstep>
   <time name="dav">    0.24    0.24</time>
   <time name="total">    0.50    0.50</time>
   <energy>
    <i name="alphaZ">      3.48814018 </i>
    <i name="ewald">   1122.78121525 </i>
    <i name="hartreedc">  -1903.98424708 </i>
    <i name="XCdc">     98.18712184 </i>
    <i name="pawpsdc">   2486.37682106 </i>
    <i name="pawaedc">  -2490.63762661 </i>
    <i name="eentropy">     -0.00000000 </i>
    <i name="bandstr">   -349.36753281 </i>
    <i name="atom">    957.82965714 </i>
    <i name="e_fr_energy">    -75.32645104 </i>
    <i name="e_wo_entrp">    -75.32645104 </i>
    <i name="e_0_energy">    -75.32645104 </i>
   </energy>
  </scstep>
  <structure>
   <crystal>
    <varray name="basis" >
     <v>      10.58354422       0.00000000       0.00000000 </v>
     <v>       0.00000000      10.58354422       0.00000000 </v>
     <v>       0.00000000       0.00000000      10.58354422 </v>
    </varray>
    <i name="volume">   1185.47769178 </i>
    <varray name="rec_basis" >
     <v>       0.09448631       0.00000000       0.00000000 </v>
     <v>       0.00000000       0.09448631       0.00000000 </v>
     <v>       0.00000000       0.00000000       0.09448631 </v>
    </varray>
   </crystal>
   <varray name="positions" >
    <v>       0.50037775       0.62986875       0.49884490 </v>
    <v>       0.38620345       0.56103230       0.50255130 </v>
    <v>       0.38247605       0.42616840       0.49850550 </v>
    <v>       0.49550200       0.36722955       0.49023465 </v>
    <v>       0.61522690       0.43441715       0.50472745 </v>
    <v>       0.61588875       0.56829470       0.49964415 </v>
    <v>       0.49869175       0.73128970       0.48833670 </v>
    <v>       0.30127830       0.61987450       0.51584395 </v>
    <v>       0.28990225       0.38679060       0.49423105 </v>
    <v>       0.51066550       0.27548600       0.49893400 </v>
    <v>       0.69825335       0.37316850       0.50880520 </v>
    <v>       0.70553385       0.62637975       0.49934115 </v>
   </varray>
  </structure>
  <varray name="forces" >
   <v>      -0.84485619      -0.63939629      -0.25494131 </v>
   <v>       0.15259829       0.44196425       0.24184971 </v>
   <v>      -0.46636186       3.12904312      -0.29992018 </v>
   <v>       2.86605995       3.76416750       1.00403294 </v>
   <v>      -1.68842846       0.26728393      -0.90993057 </v>
   <v>       1.37586522      -0.84604602       0.20790478 </v>
   <v>      -0.14889069       0.43406004       0.23190623 </v>
   <v>      -0.00627695      -0.51748159      -0.30819416 </v>
   <v>      -0.56766948      -0.89357069       0.08784631 </v>
   <v>       0.02867167      -4.73867316      -0.03993775 </v>
   <v>       0.16086831       0.40557952       0.00855195 </v>
   <v>      -0.86157979      -0.80693058       0.03083206 </v>
  </varray>
  <varray name="stress" >
   <v>      -0.76423771      -4.98012702      -0.39389706 </v>
   <v>      -4.98012702       2.40336742      -0.52843476 </v>
   <v>      -0.39389707      -0.52843475      -0.47339303 </v>
  </varray>
  <energy>
   <i name="e_fr_energy">    -75.32645104 </i>
   <i name="e_wo_entrp">    -75.32645104 </i>
   <i name="e_0_energy">    -75.32645104 </i>
  </energy>
  <time name="totalsc">   15.49   15.69</time>
  <eigenvalues>
   <array>
    <dimension dim="1">band</dimension>
    <dimension dim="2">kpoint</dimension>
    <dimension dim="3">spin</dimension>
    <field>eigene</field>
    <field>occ</field>
    <set>
     <set comment="spin 1">
      <set comment="kpoint 1">
       <r>  -20.6784    1.0000 </r>
       <r>  -18.2176    1.0000 </r>
       <r>  -17.7560    1.0000 </r>
       <r>  -14.4829    1.0000 </r>
       <r>  -14.3897    1.0000 </r>
       <r>  -12.4542    1.0000 </r>
       <r>  -10.9005    1.0000 </r>
       <r>  -10.4541    1.0000 </r>
       <r>  -10.0404    1.0000 </r>
       <r>   -9.4326    1.0000 </r>
       <r>   -8.5908    1.0000 </r>
       <r>   -7.9215    1.0000 </r>
       <r>   -7.6031    1.0000 </r>
       <r>   -6.1022    1.0000 </r>
       <r>   -5.6597    1.0000 </r>
       <r>   -1.0849    0.0000 </r>
       <r>   -0.7824    0.0000 </r>
       <r>   -0.4095    0.0000 </r>
       <r>    0.7330    0.0000 </r>
       <r>    0.8093    0.0000 </r>
       <r>    0.8616    0.0000 </r>
       <r>    0.9266    0.0000 </r>
       <r>    0.9899    0.0000 </r>
       <r>    1.4530    0.0000 </r>
      </set>
     </set>
    </set>
   </array>
  </eigenvalues>
  <separator name="orbital magnetization" >
   <v name="MAGDIPOLOUT">      0.00000000      0.00000000      0.00000000</v>
  </separator>
  <dos>
   <i name="efermi">     -5.38787971 </i>
   <total>
    <array>
     <dimension dim="1">gridpoints</dimension>
     <dimension dim="2">spin</dimension>
     <field>energy</field>
     <field>total</field>
     <field>integrated</field>
     <set>
      <set comment="spin 1">
       <r>   -21.7850     0.0000     0.0000 </r>
       <r>   -21.7038     0.0000     0.0000 </r>
       <r>   -21.6227     0.0000     0.0000 </r>
       <r>   -21.5415     0.0000     0.0000 </r>
       <r>   -21.4604     0.0000     0.0000 </r>
       <r>   -21.3792     0.0000     0.0000 </r>
       <r>   -21.2981     0.0000     0.0000 </r>
       <r>   -21.2169     0.0000     0.0000 </r>
       <r>   -21.1358     0.0000     0.0000 </r>
       <r>   -21.0546     0.0000     0.0000 </r>
       <r>   -20.9735     0.0000     0.0000 </r>
       <r>   -20.8923     0.0000     0.0000 </r>
       <r>   -20.8112     0.0021     0.0002 </r>
       <r>   -20.7300     1.7739     0.1441 </r>
       <r>   -20.6489    17.8925     1.5961 </r>
       <r>   -20.5677     4.9561     1.9983 </r>
       <r>   -20.4866     0.0216     2.0000 </r>
       <r>   -20.4054     0.0000     2.0000 </r>
       <r>   -20.3243     0.0000     2.0000 </r>
       <r>   -20.2431     0.0000     2.0000 </r>
       <r>   -20.1620     0.0000     2.0000 </r>
       <r>   -20.0808     0.0000     2.0000 </r>
       <r>   -19.9997     0.0000     2.0000 </r>
       <r>   -19.9185     0.0000     2.0000 </r>
       <r>   -19.8374     0.0000     2.0000 </r>
       <r>   -19.7562     0.0000     2.0000 </r>
       <r>   -19.6751     0.0000     2.0000 </r>
       <r>   -19.5939     0.0000     2.0000 </r>
       <r>   -19.5128     0.0000     2.0000 </r>
       <r>   -19.4316     0.0000     2.0000 </r>
       <r>   -19.3505     0.0000     2.0000 </r>
       <r>   -19.2693     0.0000     2.0000 </r>
       <r>   -19.1882     0.0000     2.0000 </r>
       <r>   -19.1070     0.0000     2.0000 </r>
       <r>   -19.0259     0.0000     2.0000 </r>
       <r>   -18.9448     0.0000     2.0000 </r>
       <r>   -18.8636     0.0000     2.0000 </r>
       <r>   -18.7825     0.0000     2.0000 </r>
       <r>   -18.7013     0.0000     2.0000 </r>
       <r>   -18.6202     0.0000     2.0000 </r>
       <r>   -18.5390     0.0000     2.0000 </r>
       <r>   -18.4579     0.0000     2.0000 </r>
       <r>   -18.3767     0.0001     2.0000 </r>
       <r>   -18.2956     0.3393     2.0275 </r>
       <r>   -18.2144    12.8816     3.0729 </r>
       <r>   -18.1333    11.2157     3.9830 </r>
       <r>   -18.0521     0.2095     4.0000 </r>
       <r>   -17.9710     0.0000     4.0000 </r>
       <r>   -17.8898     0.0019     4.0002 </r>
       <r>   -17.8087     1.6793     4.1364 </r>
       <r>   -17.7275    17.7862     5.5798 </r>
       <r>   -17.6464     5.1550     5.9981 </r>
       <r>   -17.5652     0.0237     6.0000 </r>
       <r>   -17.4841     0.0000     6.0000 </r>
       <r>   -17.4029     0.0000     6.0000 </r>
       <r>   -17.3218     0.0000     6.0000 </r>
       <r>   -17.2406     0.0000     6.0000 </r>
       <r>   -17.1595     0.0000     6.0000 </r>
       <r>   -17.0783     0.0000     6.0000 </r>
       <r>   -16.9972     0.0000     6.0000 </r>
       <r>   -16.9160     0.0000     6.0000 </r>
       <r>   -16.8349     0.0000     6.0000 </r>
       <r>   -16.7537     0.0000     6.0000 </r>
       <r>   -16.6726     0.0000     6.0000 </r>
       <r>   -16.5914     0.0000     6.0000 </r>
       <r>   -16.5103     0.0000     6.0000 </r>
       <r>   -16.4291     0.0000     6.0000 </r>
       <r>   -16.3480     0.0000     6.0000 </r>
       <r>   -16.2669     0.0000     6.0000 </r>
       <r>   -16.1857     0.0000     6.0000 </r>
       <r>   -16.1046     0.0000     6.0000 </r>
       <r>   -16.0234     0.0000     6.0000 </r>
       <r>   -15.9423     0.0000     6.0000 </r>
       <r>   -15.8611     0.0000     6.0000 </r>
       <r>   -15.7800     0.0000     6.0000 </r>
       <r>   -15.6988     0.0000     6.0000 </r>
       <r>   -15.6177     0.0000     6.0000 </r>
       <r>   -15.5365     0.0000     6.0000 </r>
       <r>   -15.4554     0.0000     6.0000 </r>
       <r>   -15.3742     0.0000     6.0000 </r>
       <r>   -15.2931     0.0000     6.0000 </r>
       <r>   -15.2119     0.0000     6.0000 </r>
       <r>   -15.1308     0.0000     6.0000 </r>
       <r>   -15.0496     0.0000     6.0000 </r>
       <r>   -14.9685     0.0000     6.0000 </r>
       <r>   -14.8873     0.0000     6.0000 </r>
       <r>   -14.8062     0.0000     6.0000 </r>
       <r>   -14.7250     0.0000     6.0000 </r>
       <r>   -14.6439     0.0001     6.0000 </r>
       <r>   -14.5627     0.2953     6.0240 </r>
       <r>   -14.4816    12.5119     7.0393 </r>
       <r>   -14.4004    20.9687     8.7409 </r>
       <r>   -14.3193    14.9428     9.9535 </r>
       <r>   -14.2381     0.5734    10.0000 </r>
       <r>   -14.1570     0.0002    10.0000 </r>
       <r>   -14.0758     0.0000    10.0000 </r>
       <r>   -13.9947     0.0000    10.0000 </r>
       <r>   -13.9135     0.0000    10.0000 </r>
       <r>   -13.8324     0.0000    10.0000 </r>
       <r>   -13.7512     0.0000    10.0000 </r>
       <r>   -13.6701     0.0000    10.0000 </r>
       <r>   -13.5890     0.0000    10.0000 </r>
       <r>   -13.5078     0.0000    10.0000 </r>
       <r>   -13.4267     0.0000    10.0000 </r>
       <r>   -13.3455     0.0000    10.0000 </r>
       <r>   -13.2644     0.0000    10.0000 </r>
       <r>   -13.1832     0.0000    10.0000 </r>
       <r>   -13.1021     0.0000    10.0000 </r>
       <r>   -13.0209     0.0000    10.0000 </r>
       <r>   -12.9398     0.0000    10.0000 </r>
       <r>   -12.8586     0.0000    10.0000 </r>
       <r>   -12.7775     0.0000    10.0000 </r>
       <r>   -12.6963     0.0000    10.0000 </r>
       <r>   -12.6152     0.0001    10.0000 </r>
       <r>   -12.5340     0.2958    10.0240 </r>
       <r>   -12.4529    12.4036    11.0305 </r>
       <r>   -12.3717    11.7049    11.9804 </r>
       <r>   -12.2906     0.2417    12.0000 </r>
       <r>   -12.2094     0.0000    12.0000 </r>
       <r>   -12.1283     0.0000    12.0000 </r>
       <r>   -12.0471     0.0000    12.0000 </r>
       <r>   -11.9660     0.0000    12.0000 </r>
       <r>   -11.8848     0.0000    12.0000 </r>
       <r>   -11.8037     0.0000    12.0000 </r>
       <r>   -11.7225     0.0000    12.0000 </r>
       <r>   -11.6414     0.0000    12.0000 </r>
       <r>   -11.5602     0.0000    12.0000 </r>
       <r>   -11.4791     0.0000    12.0000 </r>
       <r>   -11.3979     0.0000    12.0000 </r>
       <r>   -11.3168     0.0000    12.0000 </r>
       <r>   -11.2356     0.0000    12.0000 </r>
       <r>   -11.1545     0.0000    12.0000 </r>
       <r>   -11.0733     0.0000    12.0000 </r>
       <r>   -10.9922     0.1175    12.0095 </r>
       <r>   -10.9111     9.3268    12.7664 </r>
       <r>   -10.8299    14.6387    13.9543 </r>
       <r>   -10.7488     0.5630    14.0000 </r>
       <r>   -10.6676     0.0002    14.0000 </r>
       <r>   -10.5865     0.0022    14.0002 </r>
       <r>   -10.5053     1.8145    14.1474 </r>
       <r>   -10.4242    17.9341    15.6028 </r>
       <r>   -10.3430     4.8746    15.9983 </r>
       <r>   -10.2619     0.0207    16.0000 </r>
       <r>   -10.1807     0.0009    16.0001 </r>
       <r>   -10.0996     1.1637    16.0945 </r>
       <r>   -10.0184    16.9108    17.4668 </r>
       <r>    -9.9373     6.5274    17.9965 </r>
       <r>    -9.8561     0.0434    18.0000 </r>
       <r>    -9.7750     0.0000    18.0000 </r>
       <r>    -9.6938     0.0000    18.0000 </r>
       <r>    -9.6127     0.0000    18.0000 </r>
       <r>    -9.5315     0.0635    18.0052 </r>
       <r>    -9.4504     7.5219    18.6155 </r>
       <r>    -9.3692    16.1617    19.9270 </r>
       <r>    -9.2881     0.8986    20.0000 </r>
       <r>    -9.2069     0.0005    20.0000 </r>
       <r>    -9.1258     0.0000    20.0000 </r>
       <r>    -9.0446     0.0000    20.0000 </r>
       <r>    -8.9635     0.0000    20.0000 </r>
       <r>    -8.8823     0.0000    20.0000 </r>
       <r>    -8.8012     0.0000    20.0000 </r>
       <r>    -8.7200     0.0032    20.0003 </r>
       <r>    -8.6389     2.1383    20.1738 </r>
       <r>    -8.5577    18.1946    21.6502 </r>
       <r>    -8.4766     4.2948    21.9988 </r>
       <r>    -8.3954     0.0152    22.0000 </r>
       <r>    -8.3143     0.0000    22.0000 </r>
       <r>    -8.2331     0.0000    22.0000 </r>
       <r>    -8.1520     0.0000    22.0000 </r>
       <r>    -8.0709     0.0003    22.0000 </r>
       <r>    -7.9897     0.6598    22.0536 </r>
       <r>    -7.9086    15.1728    23.2848 </r>
       <r>    -7.8274     8.7171    23.9922 </r>
       <r>    -7.7463     0.0969    24.0001 </r>
       <r>    -7.6651     0.9777    24.0794 </r>
       <r>    -7.5840    16.4155    25.4115 </r>
       <r>    -7.5028     7.1961    25.9954 </r>
       <r>    -7.4217     0.0563    26.0000 </r>
       <r>    -7.3405     0.0000    26.0000 </r>
       <r>    -7.2594     0.0000    26.0000 </r>
       <r>    -7.1782     0.0000    26.0000 </r>
       <r>    -7.0971     0.0000    26.0000 </r>
       <r>    -7.0159     0.0000    26.0000 </r>
       <r>    -6.9348     0.0000    26.0000 </r>
       <r>    -6.8536     0.0000    26.0000 </r>
       <r>    -6.7725     0.0000    26.0000 </r>
       <r>    -6.6913     0.0000    26.0000 </r>
       <r>    -6.6102     0.0000    26.0000 </r>
       <r>    -6.5290     0.0000    26.0000 </r>
       <r>    -6.4479     0.0000    26.0000 </r>
       <r>    -6.3667     0.0000    26.0000 </r>
       <r>    -6.2856     0.0000    26.0000 </r>
       <r>    -6.2044     0.0471    26.0038 </r>
       <r>    -6.1233     6.7325    26.5502 </r>
       <r>    -6.0421    16.7629    27.9104 </r>
       <r>    -5.9610     1.1029    27.9999 </r>
       <r>    -5.8798     0.0008    28.0000 </r>
       <r>    -5.7987     0.0010    28.0001 </r>
       <r>    -5.7175     1.2541    28.1018 </r>
       <r>    -5.6364    17.1098    29.4903 </r>
       <r>    -5.5552     6.2427    29.9969 </r>
       <r>    -5.4741     0.0386    30.0000 </r>
       <r>    -5.3930     0.0000    30.0000 </r>
       <r>    -5.3118     0.0000    30.0000 </r>
       <r>    -5.2307     0.0000    30.0000 </r>
       <r>    -5.1495     0.0000    30.0000 </r>
       <r>    -5.0684     0.0000    30.0000 </r>
       <r>    -4.9872     0.0000    30.0000 </r>
       <r>    -4.9061     0.0000    30.0000 </r>
       <r>    -4.8249     0.0000    30.0000 </r>
       <r>    -4.7438     0.0000    30.0000 </r>
       <r>    -4.6626     0.0000    30.0000 </r>
       <r>    -4.5815     0.0000    30.0000 </r>
       <r>    -4.5003     0.0000    30.0000 </r>
       <r>    -4.4192     0.0000    30.0000 </r>
       <r>    -4.3380     0.0000    30.0000 </r>
       <r>    -4.2569     0.0000    30.0000 </r>
       <r>    -4.1757     0.0000    30.0000 </r>
       <r>    -4.0946     0.0000    30.0000 </r>
       <r>    -4.0134     0.0000    30.0000 </r>
       <r>    -3.9323     0.0000    30.0000 </r>
       <r>    -3.8511     0.0000    30.0000 </r>
       <r>    -3.7700     0.0000    30.0000 </r>
       <r>    -3.6888     0.0000    30.0000 </r>
       <r>    -3.6077     0.0000    30.0000 </r>
       <r>    -3.5265     0.0000    30.0000 </r>
       <r>    -3.4454     0.0000    30.0000 </r>
       <r>    -3.3642     0.0000    30.0000 </r>
       <r>    -3.2831     0.0000    30.0000 </r>
       <r>    -3.2019     0.0000    30.0000 </r>
       <r>    -3.1208     0.0000    30.0000 </r>
       <r>    -3.0396     0.0000    30.0000 </r>
       <r>    -2.9585     0.0000    30.0000 </r>
       <r>    -2.8773     0.0000    30.0000 </r>
       <r>    -2.7962     0.0000    30.0000 </r>
       <r>    -2.7151     0.0000    30.0000 </r>
       <r>    -2.6339     0.0000    30.0000 </r>
       <r>    -2.5528     0.0000    30.0000 </r>
       <r>    -2.4716     0.0000    30.0000 </r>
       <r>    -2.3905     0.0000    30.0000 </r>
       <r>    -2.3093     0.0000    30.0000 </r>
       <r>    -2.2282     0.0000    30.0000 </r>
       <r>    -2.1470     0.0000    30.0000 </r>
       <r>    -2.0659     0.0000    30.0000 </r>
       <r>    -1.9847     0.0000    30.0000 </r>
       <r>    -1.9036     0.0000    30.0000 </r>
       <r>    -1.8224     0.0000    30.0000 </r>
       <r>    -1.7413     0.0000    30.0000 </r>
       <r>    -1.6601     0.0000    30.0000 </r>
       <r>    -1.5790     0.0000    30.0000 </r>
       <r>    -1.4978     0.0000    30.0000 </r>
       <r>    -1.4167     0.0000    30.0000 </r>
       <r>    -1.3355     0.0000    30.0000 </r>
       <r>    -1.2544     0.0000    30.0000 </r>
       <r>    -1.1732     0.1542    30.0125 </r>
       <r>    -1.0921    10.1964    30.8399 </r>
       <r>    -1.0109    13.8479    31.9637 </r>
       <r>    -0.9298     0.4479    32.0000 </r>
       <r>    -0.8486     0.7499    32.0609 </r>
       <r>    -0.7675    15.5914    33.3261 </r>
       <r>    -0.6863     8.2233    33.9934 </r>
       <r>    -0.6052     0.0814    34.0000 </r>
       <r>    -0.5240     0.0147    34.0012 </r>
       <r>    -0.4429     4.2298    34.3444 </r>
       <r>    -0.3617    18.2194    35.8229 </r>
       <r>    -0.2806     2.1789    35.9997 </r>
       <r>    -0.1994     0.0033    36.0000 </r>
       <r>    -0.1183     0.0000    36.0000 </r>
       <r>    -0.0371     0.0000    36.0000 </r>
       <r>     0.0440     0.0000    36.0000 </r>
       <r>     0.1251     0.0000    36.0000 </r>
       <r>     0.2063     0.0000    36.0000 </r>
       <r>     0.2874     0.0000    36.0000 </r>
       <r>     0.3686     0.0000    36.0000 </r>
       <r>     0.4497     0.0000    36.0000 </r>
       <r>     0.5309     0.0000    36.0000 </r>
       <r>     0.6120     0.0077    36.0006 </r>
       <r>     0.6932     3.2135    36.2614 </r>
       <r>     0.7743    22.5892    38.0945 </r>
       <r>     0.8555    32.2910    40.7148 </r>
       <r>     0.9366    32.1152    43.3209 </r>
       <r>     1.0178    27.5836    45.5593 </r>
       <r>     1.0989     5.4055    45.9980 </r>
       <r>     1.1801     0.0253    46.0000 </r>
       <r>     1.2612     0.0000    46.0000 </r>
       <r>     1.3424     0.0216    46.0017 </r>
       <r>     1.4235     4.9561    46.4039 </r>
       <r>     1.5047    17.8925    47.8559 </r>
       <r>     1.5858     1.7739    47.9998 </r>
       <r>     1.6670     0.0021    48.0000 </r>
       <r>     1.7481     0.0000    48.0000 </r>
       <r>     1.8293     0.0000    48.0000 </r>
       <r>     1.9104     0.0000    48.0000 </r>
       <r>     1.9916     0.0000    48.0000 </r>
       <r>     2.0727     0.0000    48.0000 </r>
       <r>     2.1539     0.0000    48.0000 </r>
       <r>     2.2350     0.0000    48.0000 </r>
       <r>     2.3162     0.0000    48.0000 </r>
       <r>     2.3973     0.0000    48.0000 </r>
       <r>     2.4785     0.0000    48.0000 </r>
       <r>     2.5596     0.0000    48.0000 </r>
      </set>
     </set>
    </array>
   </total>
  </dos>
 </calculation>
 <structure name="finalpos" >
  <crystal>
   <varray name="basis" >
    <v>      10.58354422       0.00000000       0.00000000 </v>
    <v>       0.00000000      10.58354422       0.00000000 </v>
    <v>       0.00000000       0.00000000      10.58354422 </v>
   </varray>
   <i name="volume">   1185.47769178 </i>
   <varray name="rec_basis" >
    <v>       0.09448631       0.00000000       0.00000000 </v>
    <v>       0.00000000       0.09448631       0.00000000 </v>
    <v>       0.00000000       0.00000000       0.09448631 </v>
   </varray>
  </crystal>
  <varray name="positions" >
   <v>       0.50037775       0.62986875       0.49884490 </v>
   <v>       0.38620345       0.56103230       0.50255130 </v>
   <v>       0.38247605       0.42616840       0.49850550 </v>
   <v>       0.49550200       0.36722955       0.49023465 </v>
   <v>       0.61522690       0.43441715       0.50472745 </v>
   <v>       0.61588875       0.56829470       0.49964415 </v>
   <v>       0.49869175       0.73128970       0.48833670 </v>
   <v>       0.30127830       0.61987450       0.51584395 </v>
   <v>       0.28990225       0.38679060       0.49423105 </v>
   <v>       0.51066550       0.27548600       0.49893400 </v>
   <v>       0.69825335       0.37316850       0.50880520 </v>
   <v>       0.70553385       0.62637975       0.49934115 </v>
  </varray>
 </structure>
</modeling>
