<?xml version="1.0" encoding="ISO-8859-1"?>
<modeling>
 <generator>
  <i name="program" type="string">vasp </i>
  <i name="version" type="string">6.2.0  </i>
  <i name="subversion" type="string">18Jan21 (build Mar 25 2021 14:28:09) complex                          parallel </i>
  <i name="platform" type="string">LinuxGNU </i>
  <i name="date" type="string">2021 12 20 </i>
  <i name="time" type="string">09:48:54 </i>
 </generator>
 <incar>
  <i type="string" name="SYSTEM">benzene</i>
  <i type="int" name="ISTART">     0</i>
  <i type="string" name="PREC">Accurate</i>
  <i type="string" name="ALGO">Normal</i>
  <i type="int" name="NELM">   200</i>
  <i type="int" name="IBRION">    -1</i>
  <i name="EDIFF">      0.00000100</i>
  <i type="int" name="NSW">     0</i>
  <i name="ENCUT">    600.00000000</i>
  <i type="logical" name="LREAL"> F  </i>
  <i type="int" name="ISMEAR">     0</i>
  <i name="SIGMA">      0.05000000</i>
  <i type="logical" name="LWAVE"> F  </i>
  <i type="logical" name="LCHARG"> T  </i>
  <i type="string" name="GGA">PE</i>
 </incar>
 <primitive_cell>
  <structure name="primitive_cell" >
   <crystal>
    <varray name="basis" >
     <v>      10.58354422       0.00000000       0.00000000 </v>
     <v>       0.00000000      10.58354422       0.00000000 </v>
     <v>       0.00000000       0.00000000      10.58354422 </v>
    </varray>
    <i name="volume">   1185.47769178 </i>
    <varray name="rec_basis" >
     <v>       0.09448631       0.00000000       0.00000000 </v>
     <v>       0.00000000       0.09448631       0.00000000 </v>
     <v>       0.00000000       0.00000000       0.09448631 </v>
    </varray>
   </crystal>
   <varray name="positions" >
    <v>       0.49930475       0.62864345       0.49653905 </v>
    <v>       0.39076580       0.56740660       0.49605555 </v>
    <v>       0.38080060       0.42913405       0.49168840 </v>
    <v>       0.49378165       0.36054860       0.48722735 </v>
    <v>       0.61039465       0.43499600       0.49205675 </v>
    <v>       0.61375185       0.56983740       0.49520560 </v>
    <v>       0.50250370       0.73201140       0.50966215 </v>
    <v>       0.30583925       0.62670705       0.50447650 </v>
    <v>       0.29362815       0.37421750       0.50472165 </v>
    <v>       0.50506975       0.26533725       0.51296050 </v>
    <v>       0.69962725       0.38684030       0.50860960 </v>
    <v>       0.70453250       0.62432045       0.50079690 </v>
   </varray>
  </structure>
  <varray name="primitive_index" >
   <v type="int" >        1 </v>
   <v type="int" >        2 </v>
   <v type="int" >        3 </v>
   <v type="int" >        4 </v>
   <v type="int" >        5 </v>
   <v type="int" >        6 </v>
   <v type="int" >        7 </v>
   <v type="int" >        8 </v>
   <v type="int" >        9 </v>
   <v type="int" >       10 </v>
   <v type="int" >       11 </v>
   <v type="int" >       12 </v>
  </varray>
 </primitive_cell>
 <kpoints>
  <generation param="Gamma">
   <v type="int" name="divisions">       1        1        1 </v>
   <v name="usershift">      0.00000000       0.00000000       0.00000000 </v>
   <v name="genvec1">      1.00000000       0.00000000       0.00000000 </v>
   <v name="genvec2">      0.00000000       1.00000000       0.00000000 </v>
   <v name="genvec3">      0.00000000       0.00000000       1.00000000 </v>
   <v name="shift">      0.00000000       0.00000000       0.00000000 </v>
  </generation>
  <varray name="kpointlist" >
   <v>       0.00000000       0.00000000       0.00000000 </v>
  </varray>
  <varray name="weights" >
   <v>       1.00000000 </v>
  </varray>
 </kpoints>
 <parameters>
  <separator name="general" >
   <i type="string" name="SYSTEM">benzene</i>
   <i type="logical" name="LCOMPAT"> F  </i>
  </separator>
  <separator name="electronic" >
   <i type="string" name="PREC">accura</i>
   <i name="ENMAX">    600.00000000</i>
   <i name="ENAUG">    644.87300000</i>
   <i name="EDIFF">      0.00000100</i>
   <i type="int" name="IALGO">    38</i>
   <i type="int" name="IWAVPR">    10</i>
   <i type="int" name="NBANDS">    24</i>
   <i type="int" name="NBANDSLOW">    -1</i>
   <i type="int" name="NBANDSHIGH">    -1</i>
   <i name="NELECT">     30.00000000</i>
   <i type="int" name="TURBO">     0</i>
   <i type="int" name="IRESTART">     0</i>
   <i type="int" name="NREBOOT">     0</i>
   <i type="int" name="NMIN">     0</i>
   <i name="EREF">      0.00000000</i>
   <separator name="electronic smearing" >
    <i type="int" name="ISMEAR">     0</i>
    <i name="SIGMA">      0.05000000</i>
    <i name="KSPACING">      0.50000000</i>
    <i type="logical" name="KGAMMA"> T  </i>
    <i type="logical" name="KBLOWUP"> T  </i>
   </separator>
   <separator name="electronic projectors" >
    <i type="logical" name="LREAL"> F  </i>
    <v name="ROPT">      0.00000000      0.00000000</v>
    <i type="int" name="LMAXPAW">  -100</i>
    <i type="int" name="LMAXMIX">     2</i>
    <i type="logical" name="NLSPLINE"> F  </i>
   </separator>
   <separator name="electronic startup" >
    <i type="int" name="ISTART">     0</i>
    <i type="int" name="ICHARG">     2</i>
    <i type="int" name="INIWAV">     1</i>
   </separator>
   <separator name="electronic spin" >
    <i type="int" name="ISPIN">     1</i>
    <i type="logical" name="LNONCOLLINEAR"> F  </i>
    <v name="MAGMOM">      1.00000000      1.00000000      1.00000000      1.00000000      1.00000000      1.00000000      1.00000000      1.00000000      1.00000000      1.00000000      1.00000000      1.00000000</v>
    <i name="NUPDOWN">     -1.00000000</i>
    <i type="logical" name="LSORBIT"> F  </i>
    <v name="SAXIS">      0.00000000      0.00000000      1.00000000</v>
    <i type="logical" name="LSPIRAL"> F  </i>
    <v name="QSPIRAL">      0.00000000      0.00000000      0.00000000</v>
    <i type="logical" name="LZEROZ"> F  </i>
   </separator>
   <separator name="electronic exchange-correlation" >
    <i type="logical" name="LASPH"> F  </i>
    <i type="logical" name="LMETAGGA"> F  </i>
   </separator>
   <separator name="electronic convergence" >
    <i type="int" name="NELM">   200</i>
    <i type="int" name="NELMDL">    -5</i>
    <i type="int" name="NELMIN">     2</i>
    <i name="ENINI">    600.00000000</i>
    <separator name="electronic convergence detail" >
     <i type="logical" name="LDIAG"> T  </i>
     <i type="logical" name="LSUBROT"> F  </i>
     <i name="WEIMIN">      0.00000000</i>
     <i name="EBREAK">      0.00000001</i>
     <i name="DEPER">      0.30000000</i>
     <i type="int" name="NRMM">     4</i>
     <i name="TIME">      0.40000000</i>
    </separator>
   </separator>
   <separator name="electronic mixer" >
    <i name="AMIX">      0.40000000</i>
    <i name="BMIX">      1.00000000</i>
    <i name="AMIN">      0.10000000</i>
    <i name="AMIX_MAG">      1.60000000</i>
    <i name="BMIX_MAG">      1.00000000</i>
    <separator name="electronic mixer details" >
     <i type="int" name="IMIX">     4</i>
     <i type="logical" name="MIXFIRST"> F  </i>
     <i type="int" name="MAXMIX">   -45</i>
     <i name="WC">    100.00000000</i>
     <i type="int" name="INIMIX">     1</i>
     <i type="int" name="MIXPRE">     1</i>
     <i type="int" name="MREMOVE">     5</i>
    </separator>
   </separator>
   <separator name="electronic dipolcorrection" >
    <i type="logical" name="LDIPOL"> F  </i>
    <i type="logical" name="LMONO"> F  </i>
    <i type="int" name="IDIPOL">     0</i>
    <i name="EPSILON">      1.00000000</i>
    <v name="DIPOL">   -100.00000000   -100.00000000   -100.00000000</v>
    <i name="EFIELD">      0.00000000</i>
   </separator>
  </separator>
  <separator name="grids" >
   <i type="int" name="NGX">    90</i>
   <i type="int" name="NGY">    90</i>
   <i type="int" name="NGZ">    90</i>
   <i type="int" name="NGXF">   180</i>
   <i type="int" name="NGYF">   180</i>
   <i type="int" name="NGZF">   180</i>
   <i type="logical" name="ADDGRID"> F  </i>
  </separator>
  <separator name="ionic" >
   <i type="int" name="NSW">     0</i>
   <i type="int" name="IBRION">    -1</i>
   <i type="int" name="MDALGO">     0</i>
   <i type="int" name="ISIF">     2</i>
   <i name="PSTRESS">      0.00000000</i>
   <i name="EDIFFG">      0.00001000</i>
   <i type="int" name="NFREE">     0</i>
   <i name="POTIM">      0.50000000</i>
   <i name="SMASS">     -3.00000000</i>
   <i name="SCALEE">      1.00000000</i>
  </separator>
  <separator name="ionic md" >
   <i name="TEBEG">      0.00010000</i>
   <i name="TEEND">      0.00010000</i>
   <i type="int" name="NBLOCK">     1</i>
   <i type="int" name="KBLOCK">     1</i>
   <i type="int" name="NPACO">   256</i>
   <i name="APACO">     16.00000000</i>
  </separator>
  <separator name="symmetry" >
   <i type="int" name="ISYM">     2</i>
   <i name="SYMPREC">      0.00001000</i>
  </separator>
  <separator name="dos" >
   <i type="int" name="LORBIT">     0</i>
   <v name="RWIGS">     -1.00000000     -1.00000000</v>
   <i type="int" name="NEDOS">   301</i>
   <i name="EMIN">     10.00000000</i>
   <i name="EMAX">    -10.00000000</i>
   <i name="EFERMI">      0.00000000</i>
  </separator>
  <separator name="writing" >
   <i type="int" name="NWRITE">     2</i>
   <i type="logical" name="LWAVE"> F  </i>
   <i type="logical" name="LDOWNSAMPLE"> F  </i>
   <i type="logical" name="LCHARG"> T  </i>
   <i type="logical" name="LPARD"> F  </i>
   <i type="logical" name="LVTOT"> F  </i>
   <i type="logical" name="LVHAR"> F  </i>
   <i type="logical" name="LELF"> F  </i>
   <i type="logical" name="LOPTICS"> F  </i>
   <v name="STM">      0.00000000      0.00000000      0.00000000      0.00000000      0.00000000      0.00000000      0.00000000</v>
  </separator>
  <separator name="performance" >
   <i type="int" name="NPAR">     4</i>
   <i type="int" name="NSIM">     4</i>
   <i type="int" name="NBLK">    -1</i>
   <i type="logical" name="LPLANE"> T  </i>
   <i type="logical" name="LSCALAPACK"> T  </i>
   <i type="logical" name="LSCAAWARE"> F  </i>
   <i type="logical" name="LSCALU"> F  </i>
   <i type="logical" name="LASYNC"> F  </i>
   <i type="logical" name="LORBITALREAL"> F  </i>
  </separator>
  <separator name="miscellaneous" >
   <i type="int" name="IDIOT">     3</i>
   <i type="int" name="PHON_NSTRUCT">    -1</i>
   <i type="logical" name="LMUSIC"> F  </i>
   <v name="POMASS">     12.01100000      1.00000000</v>
   <v name="DARWINR">      0.00000000      0.00000000</v>
   <v name="DARWINV">      1.00000000      1.00000000</v>
   <i type="logical" name="LCORR"> T  </i>
  </separator>
  <i type="logical" name="GGA_COMPAT"> T  </i>
  <i type="logical" name="LBERRY"> F  </i>
  <i type="int" name="ICORELEVEL">     0</i>
  <i type="logical" name="LDAU"> F  </i>
  <i type="int" name="I_CONSTRAINED_M">     0</i>
  <separator name="electronic exchange-correlation" >
   <i type="string" name="GGA">PE</i>
   <i type="int" name="VOSKOWN">     0</i>
   <i type="logical" name="LHFCALC"> F  </i>
   <i type="string" name="PRECFOCK"></i>
   <i type="logical" name="LSYMGRAD"> F  </i>
   <i type="logical" name="LHFONE"> F  </i>
   <i type="logical" name="LRHFCALC"> F  </i>
   <i type="logical" name="LTHOMAS"> F  </i>
   <i type="logical" name="LMODELHF"> F  </i>
   <i type="logical" name="LFOCKACE"> F  </i>
   <i name="ENCUT4O">     -1.00000000</i>
   <i type="int" name="EXXOEP">     0</i>
   <i type="int" name="FOURORBIT">     0</i>
   <i name="AEXX">      0.00000000</i>
   <i name="HFALPHA">      0.00000000</i>
   <i name="MCALPHA">      0.00000000</i>
   <i name="ALDAX">      1.00000000</i>
   <i name="AGGAX">      1.00000000</i>
   <i name="ALDAC">      1.00000000</i>
   <i name="AGGAC">      1.00000000</i>
   <i type="int" name="NKREDX">     1</i>
   <i type="int" name="NKREDY">     1</i>
   <i type="int" name="NKREDZ">     1</i>
   <i type="logical" name="SHIFTRED"> F  </i>
   <i type="logical" name="ODDONLY"> F  </i>
   <i type="logical" name="EVENONLY"> F  </i>
   <i type="int" name="LMAXFOCK">     0</i>
   <i type="int" name="NMAXFOCKAE">     0</i>
   <i type="logical" name="LFOCKAEDFT"> F  </i>
   <i name="HFSCREEN">      0.00000000</i>
   <i name="HFSCREENC">      0.00000000</i>
   <i type="int" name="NBANDSGWLOW">     0</i>
  </separator>
  <separator name="vdW DFT" >
   <i type="logical" name="LUSE_VDW"> F  </i>
   <i name="Zab_VDW">     -0.84910000</i>
   <i name="PARAM1">      0.12340000</i>
   <i name="PARAM2">      1.00000000</i>
   <i name="PARAM3">      0.00000000</i>
  </separator>
  <separator name="model GW" >
   <i type="int" name="MODEL_GW">     0</i>
   <i name="MODEL_EPS0">     59.27388459</i>
   <i name="MODEL_ALPHA">      1.00000000</i>
  </separator>
  <separator name="linear response parameters" >
   <i type="logical" name="LEPSILON"> F  </i>
   <i type="logical" name="LRPA"> F  </i>
   <i type="logical" name="LNABLA"> F  </i>
   <i type="logical" name="LVEL"> F  </i>
   <i type="int" name="KINTER">     0</i>
   <i name="CSHIFT">      0.10000000</i>
   <i name="OMEGAMAX">     -1.00000000</i>
   <i name="DEG_THRESHOLD">      0.00200000</i>
   <i name="RTIME">     -0.10000000</i>
   <i name="WPLASMAI">      0.00000000</i>
   <v name="DFIELD">      0.00000000      0.00000000      0.00000000</v>
   <v name="WPLASMA">      0.00000000      0.00000000      0.00000000      0.00000000      0.00000000      0.00000000      0.00000000      0.00000000      0.00000000</v>
  </separator>
  <separator name="orbital magnetization" >
   <i type="logical" name="NUCIND"> F  </i>
   <v name="MAGPOS">      0.00000000      0.00000000      0.00000000</v>
   <i type="logical" name="LNICSALL"> T  </i>
   <i type="logical" name="ORBITALMAG"> F  </i>
   <i type="logical" name="LMAGBLOCH"> F  </i>
   <i type="logical" name="LCHIMAG"> F  </i>
   <i type="logical" name="LGAUGE"> T  </i>
   <i type="int" name="MAGATOM">     0</i>
   <v name="MAGDIPOL">      0.00000000      0.00000000      0.00000000</v>
   <v name="AVECCONST">      0.00000000      0.00000000      0.00000000</v>
  </separator>
  <separator name="response functions" >
   <i type="logical" name="LFINITE_TEMPERATURE"> F  </i>
   <i type="logical" name="LADDER"> F  </i>
   <i type="logical" name="LRPAFORCE"> F  </i>
   <i type="logical" name="LFXC"> F  </i>
   <i type="logical" name="LHARTREE"> T  </i>
   <i type="int" name="IBSE">     0</i>
   <v type="int" name="KPOINT">    -1     0     0     0</v>
   <i type="logical" name="LTCTC"> F  </i>
   <i type="logical" name="LTCTE"> F  </i>
   <i type="logical" name="LTETE"> F  </i>
   <i type="logical" name="LTRIPLET"> F  </i>
   <i type="logical" name="LFXCEPS"> F  </i>
   <i type="logical" name="LFXHEG"> F  </i>
   <i type="int" name="NATURALO">     2</i>
   <i type="logical" name="LHOLEGF"> F  </i>
   <i type="logical" name="L2ORDER"> F  </i>
   <i type="logical" name="LDMP1"> F  </i>
   <i type="logical" name="LMP2LT"> F  </i>
   <i type="logical" name="LSMP2LT"> F  </i>
   <i type="logical" name="LGWLF"> F  </i>
   <i name="ENCUTGW">     -2.00000000</i>
   <i name="ENCUTGWSOFT">     -2.00000000</i>
   <i name="ENCUTLF">     -1.00000000</i>
   <i type="logical" name="LESF_SPLINES"> F  </i>
   <i type="int" name="LMAXMP2">    -1</i>
   <i name="SCISSOR">      0.00000000</i>
   <i type="int" name="NOMEGA">     0</i>
   <i type="int" name="NOMEGAR">     0</i>
   <i type="int" name="NBANDSGW">    -1</i>
   <i type="int" name="NBANDSO">    -1</i>
   <i type="int" name="NBANDSV">    -1</i>
   <i type="int" name="NELM">   200</i>
   <i type="int" name="NELMHF">     1</i>
   <i type="int" name="DIM">     3</i>
   <i type="int" name="IESPILON">     4</i>
   <i type="int" name="ANTIRES">     0</i>
   <i name="OMEGAMAX">    -30.00000000</i>
   <i name="OMEGAMIN">    -30.00000000</i>
   <i name="OMEGATL">   -200.00000000</i>
   <i type="int" name="OMEGAGRID">     0</i>
   <i name="CSHIFT">     -0.10000000</i>
   <i type="logical" name="LSELFENERGY"> F  </i>
   <i type="logical" name="LSPECTRAL"> F  </i>
   <i type="logical" name="LSPECTRALGW"> F  </i>
   <i type="logical" name="LSINGLES"> F  </i>
   <i type="logical" name="LFERMIGW"> F  </i>
   <i type="logical" name="ODDONLYGW"> F  </i>
   <i type="logical" name="EVENONLYGW"> F  </i>
   <i type="int" name="NKREDLFX">     1</i>
   <i type="int" name="NKREDLFY">     1</i>
   <i type="int" name="NKREDLFZ">     1</i>
   <i type="int" name="MAXMEM">  2800</i>
   <i type="int" name="TELESCOPE">     0</i>
   <i type="int" name="NTAUPAR">    -1</i>
   <i type="int" name="NOMEGAPAR">    -1</i>
   <i name="DAMP_NEWTON">      0.80000001</i>
   <i name="LAMBDA">      1.00000000</i>
  </separator>
  <separator name="External order field" >
   <i name="OFIELD_KAPPA">      0.00000000</i>
   <v name="OFIELD_K">      0.00000000      0.00000000      0.00000000</v>
   <i name="OFIELD_Q6_NEAR">      0.00000000</i>
   <i name="OFIELD_Q6_FAR">      0.00000000</i>
   <i name="OFIELD_A">      0.00000000</i>
  </separator>
 </parameters>
 <atominfo>
  <atoms>      12 </atoms>
  <types>       2 </types>
  <array name="atoms" >
   <dimension dim="1">ion</dimension>
   <field type="string">element</field>
   <field type="int">atomtype</field>
   <set>
    <rc><c>C </c><c>   1</c></rc>
    <rc><c>C </c><c>   1</c></rc>
    <rc><c>C </c><c>   1</c></rc>
    <rc><c>C </c><c>   1</c></rc>
    <rc><c>C </c><c>   1</c></rc>
    <rc><c>C </c><c>   1</c></rc>
    <rc><c>H </c><c>   2</c></rc>
    <rc><c>H </c><c>   2</c></rc>
    <rc><c>H </c><c>   2</c></rc>
    <rc><c>H </c><c>   2</c></rc>
    <rc><c>H </c><c>   2</c></rc>
    <rc><c>H </c><c>   2</c></rc>
   </set>
  </array>
  <array name="atomtypes" >
   <dimension dim="1">type</dimension>
   <field type="int">atomspertype</field>
   <field type="string">element</field>
   <field>mass</field>
   <field>valence</field>
   <field type="string">pseudopotential</field>
   <set>
    <rc><c>   6</c><c>C </c><c>     12.01100000</c><c>      4.00000000</c><c>  PAW_PBE C 08Apr2002                   </c></rc>
    <rc><c>   6</c><c>H </c><c>      1.00000000</c><c>      1.00000000</c><c>  PAW_PBE H 15Jun2001                   </c></rc>
   </set>
  </array>
 </atominfo>
 <structure name="initialpos" >
  <crystal>
   <varray name="basis" >
    <v>      10.58354422       0.00000000       0.00000000 </v>
    <v>       0.00000000      10.58354422       0.00000000 </v>
    <v>       0.00000000       0.00000000      10.58354422 </v>
   </varray>
   <i name="volume">   1185.47769178 </i>
   <varray name="rec_basis" >
    <v>       0.09448631       0.00000000       0.00000000 </v>
    <v>       0.00000000       0.09448631       0.00000000 </v>
    <v>       0.00000000       0.00000000       0.09448631 </v>
   </varray>
  </crystal>
  <varray name="positions" >
   <v>       0.49930475       0.62864345       0.49653905 </v>
   <v>       0.39076580       0.56740660       0.49605555 </v>
   <v>       0.38080060       0.42913405       0.49168840 </v>
   <v>       0.49378165       0.36054860       0.48722735 </v>
   <v>       0.61039465       0.43499600       0.49205675 </v>
   <v>       0.61375185       0.56983740       0.49520560 </v>
   <v>       0.50250370       0.73201140       0.50966215 </v>
   <v>       0.30583925       0.62670705       0.50447650 </v>
   <v>       0.29362815       0.37421750       0.50472165 </v>
   <v>       0.50506975       0.26533725       0.51296050 </v>
   <v>       0.69962725       0.38684030       0.50860960 </v>
   <v>       0.70453250       0.62432045       0.50079690 </v>
  </varray>
 </structure>
 <calculation>
  <scstep>
   <time name="dav">    0.22    0.22</time>
   <time name="total">    0.49    0.49</time>
   <energy>
    <i name="alphaZ">      3.48814018 </i>
    <i name="ewald">   1118.73339280 </i>
    <i name="hartreedc">  -1755.18340921 </i>
    <i name="XCdc">     91.16302241 </i>
    <i name="pawpsdc">    663.93644290 </i>
    <i name="pawaedc">   -667.40614445 </i>
    <i name="eentropy">     -0.00000000 </i>
    <i name="bandstr">   -200.22689250 </i>
    <i name="atom">    957.82965714 </i>
    <i name="e_fr_energy">    212.33420926 </i>
    <i name="e_wo_entrp">    212.33420926 </i>
    <i name="e_0_energy">    212.33420926 </i>
   </energy>
  </scstep>
  <scstep>
   <time name="dav">    0.26    0.26</time>
   <time name="total">    0.26    0.26</time>
   <energy>
    <i name="e_fr_energy">     -2.89251168 </i>
    <i name="e_wo_entrp">     -2.89251168 </i>
    <i name="e_0_energy">     -2.89251168 </i>
   </energy>
  </scstep>
  <scstep>
   <time name="dav">    0.22    0.22</time>
   <time name="total">    0.22    0.22</time>
   <energy>
    <i name="e_fr_energy">    -77.56378042 </i>
    <i name="e_wo_entrp">    -77.56378042 </i>
    <i name="e_0_energy">    -77.56378042 </i>
   </energy>
  </scstep>
  <scstep>
   <time name="dav">    0.19    0.20</time>
   <time name="total">    0.19    0.20</time>
   <energy>
    <i name="e_fr_energy">    -83.31783007 </i>
    <i name="e_wo_entrp">    -83.31783007 </i>
    <i name="e_0_energy">    -83.31783007 </i>
   </energy>
  </scstep>
  <scstep>
   <time name="dav">    0.26    0.26</time>
   <time name="total">    0.30    0.30</time>
   <energy>
    <i name="e_fr_energy">    -83.43912403 </i>
    <i name="e_wo_entrp">    -83.43912403 </i>
    <i name="e_0_energy">    -83.43912403 </i>
   </energy>
  </scstep>
  <scstep>
   <time name="dav">    0.23    0.23</time>
   <time name="total">    0.53    0.54</time>
   <energy>
    <i name="e_fr_energy">    -77.21472023 </i>
    <i name="e_wo_entrp">    -77.21472023 </i>
    <i name="e_0_energy">    -77.21472023 </i>
   </energy>
  </scstep>
  <scstep>
   <time name="dav">    0.24    0.24</time>
   <time name="total">    0.55    0.55</time>
   <energy>
    <i name="e_fr_energy">    -75.48710174 </i>
    <i name="e_wo_entrp">    -75.48710174 </i>
    <i name="e_0_energy">    -75.48710174 </i>
   </energy>
  </scstep>
  <scstep>
   <time name="dav">    0.24    0.24</time>
   <time name="total">    0.54    0.55</time>
   <energy>
    <i name="e_fr_energy">    -75.30935309 </i>
    <i name="e_wo_entrp">    -75.30935309 </i>
    <i name="e_0_energy">    -75.30935309 </i>
   </energy>
  </scstep>
  <scstep>
   <time name="dav">    0.22    0.22</time>
   <time name="total">    0.52    0.53</time>
   <energy>
    <i name="e_fr_energy">    -75.27723059 </i>
    <i name="e_wo_entrp">    -75.27723059 </i>
    <i name="e_0_energy">    -75.27723059 </i>
   </energy>
  </scstep>
  <scstep>
   <time name="dav">    0.24    0.24</time>
   <time name="total">    0.54    0.55</time>
   <energy>
    <i name="e_fr_energy">    -75.27122200 </i>
    <i name="e_wo_entrp">    -75.27122200 </i>
    <i name="e_0_energy">    -75.27122200 </i>
   </energy>
  </scstep>
  <scstep>
   <time name="dav">    0.20    0.20</time>
   <time name="total">    0.51    0.51</time>
   <energy>
    <i name="e_fr_energy">    -75.26579981 </i>
    <i name="e_wo_entrp">    -75.26579981 </i>
    <i name="e_0_energy">    -75.26579981 </i>
   </energy>
  </scstep>
  <scstep>
   <time name="dav">    0.19    0.20</time>
   <time name="total">    0.49    0.49</time>
   <energy>
    <i name="e_fr_energy">    -75.26762831 </i>
    <i name="e_wo_entrp">    -75.26762831 </i>
    <i name="e_0_energy">    -75.26762831 </i>
   </energy>
  </scstep>
  <scstep>
   <time name="dav">    0.19    0.20</time>
   <time name="total">    0.48    0.49</time>
   <energy>
    <i name="e_fr_energy">    -75.27483720 </i>
    <i name="e_wo_entrp">    -75.27483720 </i>
    <i name="e_0_energy">    -75.27483720 </i>
   </energy>
  </scstep>
  <scstep>
   <time name="dav">    0.22    0.22</time>
   <time name="total">    0.50    0.50</time>
   <energy>
    <i name="e_fr_energy">    -75.28362951 </i>
    <i name="e_wo_entrp">    -75.28362951 </i>
    <i name="e_0_energy">    -75.28362951 </i>
   </energy>
  </scstep>
  <scstep>
   <time name="dav">    0.22    0.22</time>
   <time name="total">    0.50    0.50</time>
   <energy>
    <i name="e_fr_energy">    -75.28778810 </i>
    <i name="e_wo_entrp">    -75.28778810 </i>
    <i name="e_0_energy">    -75.28778810 </i>
   </energy>
  </scstep>
  <scstep>
   <time name="dav">    0.24    0.24</time>
   <time name="total">    0.52    0.52</time>
   <energy>
    <i name="e_fr_energy">    -75.28882136 </i>
    <i name="e_wo_entrp">    -75.28882136 </i>
    <i name="e_0_energy">    -75.28882136 </i>
   </energy>
  </scstep>
  <scstep>
   <time name="dav">    0.22    0.22</time>
   <time name="total">    0.50    0.50</time>
   <energy>
    <i name="e_fr_energy">    -75.28958438 </i>
    <i name="e_wo_entrp">    -75.28958438 </i>
    <i name="e_0_energy">    -75.28958438 </i>
   </energy>
  </scstep>
  <scstep>
   <time name="dav">    0.22    0.22</time>
   <time name="total">    0.51    0.52</time>
   <energy>
    <i name="e_fr_energy">    -75.28975301 </i>
    <i name="e_wo_entrp">    -75.28975301 </i>
    <i name="e_0_energy">    -75.28975301 </i>
   </energy>
  </scstep>
  <scstep>
   <time name="dav">    0.19    0.19</time>
   <time name="total">    0.48    0.49</time>
   <energy>
    <i name="e_fr_energy">    -75.28982396 </i>
    <i name="e_wo_entrp">    -75.28982396 </i>
    <i name="e_0_energy">    -75.28982396 </i>
   </energy>
  </scstep>
  <scstep>
   <time name="dav">    0.20    0.20</time>
   <time name="total">    0.49    0.49</time>
   <energy>
    <i name="e_fr_energy">    -75.28984452 </i>
    <i name="e_wo_entrp">    -75.28984452 </i>
    <i name="e_0_energy">    -75.28984452 </i>
   </energy>
  </scstep>
  <scstep>
   <time name="dav">    0.17    0.17</time>
   <time name="total">    0.47    0.47</time>
   <energy>
    <i name="e_fr_energy">    -75.28985025 </i>
    <i name="e_wo_entrp">    -75.28985025 </i>
    <i name="e_0_energy">    -75.28985025 </i>
   </energy>
  </scstep>
  <scstep>
   <time name="dav">    0.17    0.17</time>
   <time name="total">    0.47    0.48</time>
   <energy>
    <i name="e_fr_energy">    -75.28985264 </i>
    <i name="e_wo_entrp">    -75.28985264 </i>
    <i name="e_0_energy">    -75.28985264 </i>
   </energy>
  </scstep>
  <scstep>
   <time name="dav">    0.15    0.15</time>
   <time name="total">    0.41    0.42</time>
   <energy>
    <i name="alphaZ">      3.48814018 </i>
    <i name="ewald">   1118.73339280 </i>
    <i name="hartreedc">  -1900.32096668 </i>
    <i name="XCdc">     97.98805126 </i>
    <i name="pawpsdc">   2472.97006258 </i>
    <i name="pawaedc">  -2477.21623239 </i>
    <i name="eentropy">     -0.00000000 </i>
    <i name="bandstr">   -348.76195838 </i>
    <i name="atom">    957.82965714 </i>
    <i name="e_fr_energy">    -75.28985349 </i>
    <i name="e_wo_entrp">    -75.28985349 </i>
    <i name="e_0_energy">    -75.28985349 </i>
   </energy>
  </scstep>
  <structure>
   <crystal>
    <varray name="basis" >
     <v>      10.58354422       0.00000000       0.00000000 </v>
     <v>       0.00000000      10.58354422       0.00000000 </v>
     <v>       0.00000000       0.00000000      10.58354422 </v>
    </varray>
    <i name="volume">   1185.47769178 </i>
    <varray name="rec_basis" >
     <v>       0.09448631       0.00000000       0.00000000 </v>
     <v>       0.00000000       0.09448631       0.00000000 </v>
     <v>       0.00000000       0.00000000       0.09448631 </v>
    </varray>
   </crystal>
   <varray name="positions" >
    <v>       0.49930475       0.62864345       0.49653905 </v>
    <v>       0.39076580       0.56740660       0.49605555 </v>
    <v>       0.38080060       0.42913405       0.49168840 </v>
    <v>       0.49378165       0.36054860       0.48722735 </v>
    <v>       0.61039465       0.43499600       0.49205675 </v>
    <v>       0.61375185       0.56983740       0.49520560 </v>
    <v>       0.50250370       0.73201140       0.50966215 </v>
    <v>       0.30583925       0.62670705       0.50447650 </v>
    <v>       0.29362815       0.37421750       0.50472165 </v>
    <v>       0.50506975       0.26533725       0.51296050 </v>
    <v>       0.69962725       0.38684030       0.50860960 </v>
    <v>       0.70453250       0.62432045       0.50079690 </v>
   </varray>
  </structure>
  <varray name="forces" >
   <v>       2.02571141       3.19878734       0.28607554 </v>
   <v>      -4.16745649      -3.07315983      -0.11312289 </v>
   <v>       0.76299546       1.07638843       0.17450026 </v>
   <v>       1.74735611       3.71454384       0.75490386 </v>
   <v>      -0.51401325       0.21555282       0.13735830 </v>
   <v>       1.60325473      -2.45621471      -0.22937666 </v>
   <v>      -0.36062571      -0.21004219      -0.22964964 </v>
   <v>      -0.08599829      -0.50309044      -0.06788361 </v>
   <v>      -0.07400900       0.61801059      -0.20515370 </v>
   <v>      -0.26086034      -1.61393110      -0.20917123 </v>
   <v>       0.11583161      -0.30136855      -0.28070629 </v>
   <v>      -0.79218624      -0.66547620      -0.01777394 </v>
  </varray>
  <varray name="stress" >
   <v>       5.01351182      -4.40781501      -0.43036031 </v>
   <v>      -4.40781501      -6.51094286      -1.01101888 </v>
   <v>      -0.43036031      -1.01101888      -0.46689595 </v>
  </varray>
  <energy>
   <i name="e_fr_energy">    -75.28985349 </i>
   <i name="e_wo_entrp">    -75.28985349 </i>
   <i name="e_0_energy">    -75.28985349 </i>
  </energy>
  <time name="totalsc">   15.86   16.05</time>
  <eigenvalues>
   <array>
    <dimension dim="1">band</dimension>
    <dimension dim="2">kpoint</dimension>
    <dimension dim="3">spin</dimension>
    <field>eigene</field>
    <field>occ</field>
    <set>
     <set comment="spin 1">
      <set comment="kpoint 1">
       <r>  -20.7569    1.0000 </r>
       <r>  -18.2337    1.0000 </r>
       <r>  -17.7146    1.0000 </r>
       <r>  -14.5454    1.0000 </r>
       <r>  -14.2046    1.0000 </r>
       <r>  -12.3855    1.0000 </r>
       <r>  -10.7848    1.0000 </r>
       <r>  -10.4069    1.0000 </r>
       <r>  -10.0474    1.0000 </r>
       <r>   -9.4424    1.0000 </r>
       <r>   -8.6345    1.0000 </r>
       <r>   -7.8755    1.0000 </r>
       <r>   -7.5531    1.0000 </r>
       <r>   -6.1154    1.0000 </r>
       <r>   -5.6804    1.0000 </r>
       <r>   -1.0887    0.0000 </r>
       <r>   -0.8123    0.0000 </r>
       <r>   -0.4515    0.0000 </r>
       <r>    0.7301    0.0000 </r>
       <r>    0.7797    0.0000 </r>
       <r>    0.8684    0.0000 </r>
       <r>    0.8984    0.0000 </r>
       <r>    0.9896    0.0000 </r>
       <r>    1.4489    0.0000 </r>
      </set>
     </set>
    </set>
   </array>
  </eigenvalues>
  <separator name="orbital magnetization" >
   <v name="MAGDIPOLOUT">      0.00000000      0.00000000      0.00000000</v>
  </separator>
  <dos>
   <i name="efermi">     -5.41499465 </i>
   <total>
    <array>
     <dimension dim="1">gridpoints</dimension>
     <dimension dim="2">spin</dimension>
     <field>energy</field>
     <field>total</field>
     <field>integrated</field>
     <set>
      <set comment="spin 1">
       <r>   -21.8672     0.0000     0.0000 </r>
       <r>   -21.7858     0.0000     0.0000 </r>
       <r>   -21.7044     0.0000     0.0000 </r>
       <r>   -21.6230     0.0000     0.0000 </r>
       <r>   -21.5415     0.0000     0.0000 </r>
       <r>   -21.4601     0.0000     0.0000 </r>
       <r>   -21.3787     0.0000     0.0000 </r>
       <r>   -21.2973     0.0000     0.0000 </r>
       <r>   -21.2159     0.0000     0.0000 </r>
       <r>   -21.1344     0.0000     0.0000 </r>
       <r>   -21.0530     0.0000     0.0000 </r>
       <r>   -20.9716     0.0000     0.0000 </r>
       <r>   -20.8902     0.0020     0.0002 </r>
       <r>   -20.8087     1.7516     0.1428 </r>
       <r>   -20.7273    17.8684     1.5977 </r>
       <r>   -20.6459     4.9208     1.9983 </r>
       <r>   -20.5645     0.0207     2.0000 </r>
       <r>   -20.4831     0.0000     2.0000 </r>
       <r>   -20.4016     0.0000     2.0000 </r>
       <r>   -20.3202     0.0000     2.0000 </r>
       <r>   -20.2388     0.0000     2.0000 </r>
       <r>   -20.1574     0.0000     2.0000 </r>
       <r>   -20.0759     0.0000     2.0000 </r>
       <r>   -19.9945     0.0000     2.0000 </r>
       <r>   -19.9131     0.0000     2.0000 </r>
       <r>   -19.8317     0.0000     2.0000 </r>
       <r>   -19.7503     0.0000     2.0000 </r>
       <r>   -19.6688     0.0000     2.0000 </r>
       <r>   -19.5874     0.0000     2.0000 </r>
       <r>   -19.5060     0.0000     2.0000 </r>
       <r>   -19.4246     0.0000     2.0000 </r>
       <r>   -19.3432     0.0000     2.0000 </r>
       <r>   -19.2617     0.0000     2.0000 </r>
       <r>   -19.1803     0.0000     2.0000 </r>
       <r>   -19.0989     0.0000     2.0000 </r>
       <r>   -19.0175     0.0000     2.0000 </r>
       <r>   -18.9360     0.0000     2.0000 </r>
       <r>   -18.8546     0.0000     2.0000 </r>
       <r>   -18.7732     0.0000     2.0000 </r>
       <r>   -18.6918     0.0000     2.0000 </r>
       <r>   -18.6104     0.0000     2.0000 </r>
       <r>   -18.5289     0.0000     2.0000 </r>
       <r>   -18.4475     0.0000     2.0000 </r>
       <r>   -18.3661     0.0022     2.0002 </r>
       <r>   -18.2847     1.8295     2.1491 </r>
       <r>   -18.2033    17.9471     3.6104 </r>
       <r>   -18.1218     4.7656     3.9984 </r>
       <r>   -18.0404     0.0192     4.0000 </r>
       <r>   -17.9590     0.0000     4.0000 </r>
       <r>   -17.8776     0.0000     4.0000 </r>
       <r>   -17.7961     0.2593     4.0211 </r>
       <r>   -17.7147    11.9937     4.9977 </r>
       <r>   -17.6333    12.0470     5.9786 </r>
       <r>   -17.5519     0.2634     6.0000 </r>
       <r>   -17.4705     0.0001     6.0000 </r>
       <r>   -17.3890     0.0000     6.0000 </r>
       <r>   -17.3076     0.0000     6.0000 </r>
       <r>   -17.2262     0.0000     6.0000 </r>
       <r>   -17.1448     0.0000     6.0000 </r>
       <r>   -17.0634     0.0000     6.0000 </r>
       <r>   -16.9819     0.0000     6.0000 </r>
       <r>   -16.9005     0.0000     6.0000 </r>
       <r>   -16.8191     0.0000     6.0000 </r>
       <r>   -16.7377     0.0000     6.0000 </r>
       <r>   -16.6562     0.0000     6.0000 </r>
       <r>   -16.5748     0.0000     6.0000 </r>
       <r>   -16.4934     0.0000     6.0000 </r>
       <r>   -16.4120     0.0000     6.0000 </r>
       <r>   -16.3306     0.0000     6.0000 </r>
       <r>   -16.2491     0.0000     6.0000 </r>
       <r>   -16.1677     0.0000     6.0000 </r>
       <r>   -16.0863     0.0000     6.0000 </r>
       <r>   -16.0049     0.0000     6.0000 </r>
       <r>   -15.9235     0.0000     6.0000 </r>
       <r>   -15.8420     0.0000     6.0000 </r>
       <r>   -15.7606     0.0000     6.0000 </r>
       <r>   -15.6792     0.0000     6.0000 </r>
       <r>   -15.5978     0.0000     6.0000 </r>
       <r>   -15.5163     0.0000     6.0000 </r>
       <r>   -15.4349     0.0000     6.0000 </r>
       <r>   -15.3535     0.0000     6.0000 </r>
       <r>   -15.2721     0.0000     6.0000 </r>
       <r>   -15.1907     0.0000     6.0000 </r>
       <r>   -15.1092     0.0000     6.0000 </r>
       <r>   -15.0278     0.0000     6.0000 </r>
       <r>   -14.9464     0.0000     6.0000 </r>
       <r>   -14.8650     0.0000     6.0000 </r>
       <r>   -14.7836     0.0000     6.0000 </r>
       <r>   -14.7021     0.0001     6.0000 </r>
       <r>   -14.6207     0.4073     6.0332 </r>
       <r>   -14.5393    13.5611     7.1373 </r>
       <r>   -14.4579    10.4317     7.9867 </r>
       <r>   -14.3764     0.1632     8.0000 </r>
       <r>   -14.2950     0.1296     8.0105 </r>
       <r>   -14.2136     9.6866     8.7992 </r>
       <r>   -14.1322    14.2500     9.9595 </r>
       <r>   -14.0508     0.4972    10.0000 </r>
       <r>   -13.9693     0.0002    10.0000 </r>
       <r>   -13.8879     0.0000    10.0000 </r>
       <r>   -13.8065     0.0000    10.0000 </r>
       <r>   -13.7251     0.0000    10.0000 </r>
       <r>   -13.6437     0.0000    10.0000 </r>
       <r>   -13.5622     0.0000    10.0000 </r>
       <r>   -13.4808     0.0000    10.0000 </r>
       <r>   -13.3994     0.0000    10.0000 </r>
       <r>   -13.3180     0.0000    10.0000 </r>
       <r>   -13.2365     0.0000    10.0000 </r>
       <r>   -13.1551     0.0000    10.0000 </r>
       <r>   -13.0737     0.0000    10.0000 </r>
       <r>   -12.9923     0.0000    10.0000 </r>
       <r>   -12.9109     0.0000    10.0000 </r>
       <r>   -12.8294     0.0000    10.0000 </r>
       <r>   -12.7480     0.0000    10.0000 </r>
       <r>   -12.6666     0.0000    10.0000 </r>
       <r>   -12.5852     0.0000    10.0000 </r>
       <r>   -12.5038     0.0101    10.0008 </r>
       <r>   -12.4223     3.6420    10.2974 </r>
       <r>   -12.3409    18.3646    11.7926 </r>
       <r>   -12.2595     2.5424    11.9996 </r>
       <r>   -12.1781     0.0045    12.0000 </r>
       <r>   -12.0966     0.0000    12.0000 </r>
       <r>   -12.0152     0.0000    12.0000 </r>
       <r>   -11.9338     0.0000    12.0000 </r>
       <r>   -11.8524     0.0000    12.0000 </r>
       <r>   -11.7710     0.0000    12.0000 </r>
       <r>   -11.6895     0.0000    12.0000 </r>
       <r>   -11.6081     0.0000    12.0000 </r>
       <r>   -11.5267     0.0000    12.0000 </r>
       <r>   -11.4453     0.0000    12.0000 </r>
       <r>   -11.3639     0.0000    12.0000 </r>
       <r>   -11.2824     0.0000    12.0000 </r>
       <r>   -11.2010     0.0000    12.0000 </r>
       <r>   -11.1196     0.0000    12.0000 </r>
       <r>   -11.0382     0.0000    12.0000 </r>
       <r>   -10.9567     0.0000    12.0000 </r>
       <r>   -10.8753     0.1281    12.0104 </r>
       <r>   -10.7939     9.6519    12.7963 </r>
       <r>   -10.7125    14.2815    13.9591 </r>
       <r>   -10.6311     0.5018    14.0000 </r>
       <r>   -10.5496     0.0008    14.0001 </r>
       <r>   -10.4682     1.0145    14.0827 </r>
       <r>   -10.3868    16.5428    15.4296 </r>
       <r>   -10.3054     6.9553    15.9959 </r>
       <r>   -10.2240     0.0504    16.0000 </r>
       <r>   -10.1425     0.0878    16.0071 </r>
       <r>   -10.0611     8.4955    16.6989 </r>
       <r>    -9.9797    15.3004    17.9446 </r>
       <r>    -9.8983     0.6795    18.0000 </r>
       <r>    -9.8168     0.0003    18.0000 </r>
       <r>    -9.7354     0.0000    18.0000 </r>
       <r>    -9.6540     0.0000    18.0000 </r>
       <r>    -9.5726     0.0029    18.0002 </r>
       <r>    -9.4912     2.0638    18.1683 </r>
       <r>    -9.4097    18.1383    19.6451 </r>
       <r>    -9.3283     4.3433    19.9988 </r>
       <r>    -9.2469     0.0153    20.0000 </r>
       <r>    -9.1655     0.0000    20.0000 </r>
       <r>    -9.0840     0.0000    20.0000 </r>
       <r>    -9.0026     0.0000    20.0000 </r>
       <r>    -8.9212     0.0000    20.0000 </r>
       <r>    -8.8398     0.0000    20.0000 </r>
       <r>    -8.7584     0.0056    20.0005 </r>
       <r>    -8.6769     2.8132    20.2295 </r>
       <r>    -8.5955    18.4194    21.7292 </r>
       <r>    -8.5141     3.3172    21.9993 </r>
       <r>    -8.4327     0.0081    22.0000 </r>
       <r>    -8.3513     0.0000    22.0000 </r>
       <r>    -8.2698     0.0000    22.0000 </r>
       <r>    -8.1884     0.0000    22.0000 </r>
       <r>    -8.1070     0.0000    22.0000 </r>
       <r>    -8.0256     0.0003    22.0000 </r>
       <r>    -7.9441     0.6391    22.0521 </r>
       <r>    -7.8627    15.0983    23.2814 </r>
       <r>    -7.7813     8.7308    23.9923 </r>
       <r>    -7.6999     0.0954    24.0000 </r>
       <r>    -7.6185     0.7902    24.0644 </r>
       <r>    -7.5370    15.7862    25.3497 </r>
       <r>    -7.4556     7.9149    25.9942 </r>
       <r>    -7.3742     0.0718    26.0000 </r>
       <r>    -7.2928     0.0000    26.0000 </r>
       <r>    -7.2114     0.0000    26.0000 </r>
       <r>    -7.1299     0.0000    26.0000 </r>
       <r>    -7.0485     0.0000    26.0000 </r>
       <r>    -6.9671     0.0000    26.0000 </r>
       <r>    -6.8857     0.0000    26.0000 </r>
       <r>    -6.8042     0.0000    26.0000 </r>
       <r>    -6.7228     0.0000    26.0000 </r>
       <r>    -6.6414     0.0000    26.0000 </r>
       <r>    -6.5600     0.0000    26.0000 </r>
       <r>    -6.4786     0.0000    26.0000 </r>
       <r>    -6.3971     0.0000    26.0000 </r>
       <r>    -6.3157     0.0000    26.0000 </r>
       <r>    -6.2343     0.0095    26.0008 </r>
       <r>    -6.1529     3.5407    26.2891 </r>
       <r>    -6.0715    18.3856    27.7860 </r>
       <r>    -5.9900     2.6230    27.9996 </r>
       <r>    -5.9086     0.0048    28.0000 </r>
       <r>    -5.8272     0.0004    28.0000 </r>
       <r>    -5.7458     0.7891    28.0643 </r>
       <r>    -5.6643    15.7818    29.3493 </r>
       <r>    -5.5829     7.9203    29.9941 </r>
       <r>    -5.5015     0.0719    30.0000 </r>
       <r>    -5.4201     0.0000    30.0000 </r>
       <r>    -5.3387     0.0000    30.0000 </r>
       <r>    -5.2572     0.0000    30.0000 </r>
       <r>    -5.1758     0.0000    30.0000 </r>
       <r>    -5.0944     0.0000    30.0000 </r>
       <r>    -5.0130     0.0000    30.0000 </r>
       <r>    -4.9316     0.0000    30.0000 </r>
       <r>    -4.8501     0.0000    30.0000 </r>
       <r>    -4.7687     0.0000    30.0000 </r>
       <r>    -4.6873     0.0000    30.0000 </r>
       <r>    -4.6059     0.0000    30.0000 </r>
       <r>    -4.5244     0.0000    30.0000 </r>
       <r>    -4.4430     0.0000    30.0000 </r>
       <r>    -4.3616     0.0000    30.0000 </r>
       <r>    -4.2802     0.0000    30.0000 </r>
       <r>    -4.1988     0.0000    30.0000 </r>
       <r>    -4.1173     0.0000    30.0000 </r>
       <r>    -4.0359     0.0000    30.0000 </r>
       <r>    -3.9545     0.0000    30.0000 </r>
       <r>    -3.8731     0.0000    30.0000 </r>
       <r>    -3.7917     0.0000    30.0000 </r>
       <r>    -3.7102     0.0000    30.0000 </r>
       <r>    -3.6288     0.0000    30.0000 </r>
       <r>    -3.5474     0.0000    30.0000 </r>
       <r>    -3.4660     0.0000    30.0000 </r>
       <r>    -3.3845     0.0000    30.0000 </r>
       <r>    -3.3031     0.0000    30.0000 </r>
       <r>    -3.2217     0.0000    30.0000 </r>
       <r>    -3.1403     0.0000    30.0000 </r>
       <r>    -3.0589     0.0000    30.0000 </r>
       <r>    -2.9774     0.0000    30.0000 </r>
       <r>    -2.8960     0.0000    30.0000 </r>
       <r>    -2.8146     0.0000    30.0000 </r>
       <r>    -2.7332     0.0000    30.0000 </r>
       <r>    -2.6518     0.0000    30.0000 </r>
       <r>    -2.5703     0.0000    30.0000 </r>
       <r>    -2.4889     0.0000    30.0000 </r>
       <r>    -2.4075     0.0000    30.0000 </r>
       <r>    -2.3261     0.0000    30.0000 </r>
       <r>    -2.2446     0.0000    30.0000 </r>
       <r>    -2.1632     0.0000    30.0000 </r>
       <r>    -2.0818     0.0000    30.0000 </r>
       <r>    -2.0004     0.0000    30.0000 </r>
       <r>    -1.9190     0.0000    30.0000 </r>
       <r>    -1.8375     0.0000    30.0000 </r>
       <r>    -1.7561     0.0000    30.0000 </r>
       <r>    -1.6747     0.0000    30.0000 </r>
       <r>    -1.5933     0.0000    30.0000 </r>
       <r>    -1.5119     0.0000    30.0000 </r>
       <r>    -1.4304     0.0000    30.0000 </r>
       <r>    -1.3490     0.0000    30.0000 </r>
       <r>    -1.2676     0.0000    30.0000 </r>
       <r>    -1.1862     0.0714    30.0058 </r>
       <r>    -1.1047     7.9004    30.6491 </r>
       <r>    -1.0233    15.7981    31.9354 </r>
       <r>    -0.9419     0.7962    32.0002 </r>
       <r>    -0.8605     2.1172    32.1726 </r>
       <r>    -0.7791    18.1732    33.6523 </r>
       <r>    -0.6976     4.2560    33.9988 </r>
       <r>    -0.6162     0.0146    34.0000 </r>
       <r>    -0.5348     0.2264    34.0184 </r>
       <r>    -0.4534    11.5283    34.9571 </r>
       <r>    -0.3720    12.5079    35.9755 </r>
       <r>    -0.2905     0.3009    36.0000 </r>
       <r>    -0.2091     0.0001    36.0000 </r>
       <r>    -0.1277     0.0000    36.0000 </r>
       <r>    -0.0463     0.0000    36.0000 </r>
       <r>     0.0352     0.0000    36.0000 </r>
       <r>     0.1166     0.0000    36.0000 </r>
       <r>     0.1980     0.0000    36.0000 </r>
       <r>     0.2794     0.0000    36.0000 </r>
       <r>     0.3608     0.0000    36.0000 </r>
       <r>     0.4423     0.0000    36.0000 </r>
       <r>     0.5237     0.0000    36.0000 </r>
       <r>     0.6051     0.0050    36.0004 </r>
       <r>     0.6865     2.7797    36.2267 </r>
       <r>     0.7679    27.4469    38.4615 </r>
       <r>     0.8494    27.5828    40.7073 </r>
       <r>     0.9308    36.2632    43.6599 </r>
       <r>     1.0122    22.3172    45.4770 </r>
       <r>     1.0936     6.3830    45.9968 </r>
       <r>     1.1751     0.0398    46.0000 </r>
       <r>     1.2565     0.0000    46.0000 </r>
       <r>     1.3379     0.0207    46.0017 </r>
       <r>     1.4193     4.9208    46.4023 </r>
       <r>     1.5007    17.8684    47.8572 </r>
       <r>     1.5822     1.7516    47.9998 </r>
       <r>     1.6636     0.0020    48.0000 </r>
       <r>     1.7450     0.0000    48.0000 </r>
       <r>     1.8264     0.0000    48.0000 </r>
       <r>     1.9078     0.0000    48.0000 </r>
       <r>     1.9893     0.0000    48.0000 </r>
       <r>     2.0707     0.0000    48.0000 </r>
       <r>     2.1521     0.0000    48.0000 </r>
       <r>     2.2335     0.0000    48.0000 </r>
       <r>     2.3150     0.0000    48.0000 </r>
       <r>     2.3964     0.0000    48.0000 </r>
       <r>     2.4778     0.0000    48.0000 </r>
       <r>     2.5592     0.0000    48.0000 </r>
      </set>
     </set>
    </array>
   </total>
  </dos>
 </calculation>
 <structure name="finalpos" >
  <crystal>
   <varray name="basis" >
    <v>      10.58354422       0.00000000       0.00000000 </v>
    <v>       0.00000000      10.58354422       0.00000000 </v>
    <v>       0.00000000       0.00000000      10.58354422 </v>
   </varray>
   <i name="volume">   1185.47769178 </i>
   <varray name="rec_basis" >
    <v>       0.09448631       0.00000000       0.00000000 </v>
    <v>       0.00000000       0.09448631       0.00000000 </v>
    <v>       0.00000000       0.00000000       0.09448631 </v>
   </varray>
  </crystal>
  <varray name="positions" >
   <v>       0.49930475       0.62864345       0.49653905 </v>
   <v>       0.39076580       0.56740660       0.49605555 </v>
   <v>       0.38080060       0.42913405       0.49168840 </v>
   <v>       0.49378165       0.36054860       0.48722735 </v>
   <v>       0.61039465       0.43499600       0.49205675 </v>
   <v>       0.61375185       0.56983740       0.49520560 </v>
   <v>       0.50250370       0.73201140       0.50966215 </v>
   <v>       0.30583925       0.62670705       0.50447650 </v>
   <v>       0.29362815       0.37421750       0.50472165 </v>
   <v>       0.50506975       0.26533725       0.51296050 </v>
   <v>       0.69962725       0.38684030       0.50860960 </v>
   <v>       0.70453250       0.62432045       0.50079690 </v>
  </varray>
 </structure>
</modeling>
