<?xml version="1.0" encoding="ISO-8859-1"?>
<modeling>
 <generator>
  <i name="program" type="string">vasp </i>
  <i name="version" type="string">6.2.0  </i>
  <i name="subversion" type="string">18Jan21 (build Mar 25 2021 14:28:09) complex                          parallel </i>
  <i name="platform" type="string">LinuxGNU </i>
  <i name="date" type="string">2021 12 20 </i>
  <i name="time" type="string">09:50:24 </i>
 </generator>
 <incar>
  <i type="string" name="SYSTEM">benzene</i>
  <i type="int" name="ISTART">     0</i>
  <i type="string" name="PREC">Accurate</i>
  <i type="string" name="ALGO">Normal</i>
  <i type="int" name="NELM">   200</i>
  <i type="int" name="IBRION">    -1</i>
  <i name="EDIFF">      0.00000100</i>
  <i type="int" name="NSW">     0</i>
  <i name="ENCUT">    600.00000000</i>
  <i type="logical" name="LREAL"> F  </i>
  <i type="int" name="ISMEAR">     0</i>
  <i name="SIGMA">      0.05000000</i>
  <i type="logical" name="LWAVE"> F  </i>
  <i type="logical" name="LCHARG"> T  </i>
  <i type="string" name="GGA">PE</i>
 </incar>
 <primitive_cell>
  <structure name="primitive_cell" >
   <crystal>
    <varray name="basis" >
     <v>      10.58354422       0.00000000       0.00000000 </v>
     <v>       0.00000000      10.58354422       0.00000000 </v>
     <v>       0.00000000       0.00000000      10.58354422 </v>
    </varray>
    <i name="volume">   1185.47769178 </i>
    <varray name="rec_basis" >
     <v>       0.09448631       0.00000000       0.00000000 </v>
     <v>       0.00000000       0.09448631       0.00000000 </v>
     <v>       0.00000000       0.00000000       0.09448631 </v>
    </varray>
   </crystal>
   <varray name="positions" >
    <v>       0.50423630       0.63147325       0.50024415 </v>
    <v>       0.38221850       0.56907715       0.50841060 </v>
    <v>       0.38282565       0.43639285       0.49967385 </v>
    <v>       0.49587615       0.36622005       0.50011960 </v>
    <v>       0.61576170       0.43604910       0.50554815 </v>
    <v>       0.61814275       0.56840185       0.49735440 </v>
    <v>       0.49583965       0.72700190       0.50102085 </v>
    <v>       0.29537535       0.61942275       0.50815230 </v>
    <v>       0.29426735       0.37971260       0.48338525 </v>
    <v>       0.49821365       0.26366490       0.50170520 </v>
    <v>       0.70957555       0.38637580       0.50909130 </v>
    <v>       0.70766735       0.61620765       0.48529445 </v>
   </varray>
  </structure>
  <varray name="primitive_index" >
   <v type="int" >        1 </v>
   <v type="int" >        2 </v>
   <v type="int" >        3 </v>
   <v type="int" >        4 </v>
   <v type="int" >        5 </v>
   <v type="int" >        6 </v>
   <v type="int" >        7 </v>
   <v type="int" >        8 </v>
   <v type="int" >        9 </v>
   <v type="int" >       10 </v>
   <v type="int" >       11 </v>
   <v type="int" >       12 </v>
  </varray>
 </primitive_cell>
 <kpoints>
  <generation param="Gamma">
   <v type="int" name="divisions">       1        1        1 </v>
   <v name="usershift">      0.00000000       0.00000000       0.00000000 </v>
   <v name="genvec1">      1.00000000       0.00000000       0.00000000 </v>
   <v name="genvec2">      0.00000000       1.00000000       0.00000000 </v>
   <v name="genvec3">      0.00000000       0.00000000       1.00000000 </v>
   <v name="shift">      0.00000000       0.00000000       0.00000000 </v>
  </generation>
  <varray name="kpointlist" >
   <v>       0.00000000       0.00000000       0.00000000 </v>
  </varray>
  <varray name="weights" >
   <v>       1.00000000 </v>
  </varray>
 </kpoints>
 <parameters>
  <separator name="general" >
   <i type="string" name="SYSTEM">benzene</i>
   <i type="logical" name="LCOMPAT"> F  </i>
  </separator>
  <separator name="electronic" >
   <i type="string" name="PREC">accura</i>
   <i name="ENMAX">    600.00000000</i>
   <i name="ENAUG">    644.87300000</i>
   <i name="EDIFF">      0.00000100</i>
   <i type="int" name="IALGO">    38</i>
   <i type="int" name="IWAVPR">    10</i>
   <i type="int" name="NBANDS">    24</i>
   <i type="int" name="NBANDSLOW">    -1</i>
   <i type="int" name="NBANDSHIGH">    -1</i>
   <i name="NELECT">     30.00000000</i>
   <i type="int" name="TURBO">     0</i>
   <i type="int" name="IRESTART">     0</i>
   <i type="int" name="NREBOOT">     0</i>
   <i type="int" name="NMIN">     0</i>
   <i name="EREF">      0.00000000</i>
   <separator name="electronic smearing" >
    <i type="int" name="ISMEAR">     0</i>
    <i name="SIGMA">      0.05000000</i>
    <i name="KSPACING">      0.50000000</i>
    <i type="logical" name="KGAMMA"> T  </i>
    <i type="logical" name="KBLOWUP"> T  </i>
   </separator>
   <separator name="electronic projectors" >
    <i type="logical" name="LREAL"> F  </i>
    <v name="ROPT">      0.00000000      0.00000000</v>
    <i type="int" name="LMAXPAW">  -100</i>
    <i type="int" name="LMAXMIX">     2</i>
    <i type="logical" name="NLSPLINE"> F  </i>
   </separator>
   <separator name="electronic startup" >
    <i type="int" name="ISTART">     0</i>
    <i type="int" name="ICHARG">     2</i>
    <i type="int" name="INIWAV">     1</i>
   </separator>
   <separator name="electronic spin" >
    <i type="int" name="ISPIN">     1</i>
    <i type="logical" name="LNONCOLLINEAR"> F  </i>
    <v name="MAGMOM">      1.00000000      1.00000000      1.00000000      1.00000000      1.00000000      1.00000000      1.00000000      1.00000000      1.00000000      1.00000000      1.00000000      1.00000000</v>
    <i name="NUPDOWN">     -1.00000000</i>
    <i type="logical" name="LSORBIT"> F  </i>
    <v name="SAXIS">      0.00000000      0.00000000      1.00000000</v>
    <i type="logical" name="LSPIRAL"> F  </i>
    <v name="QSPIRAL">      0.00000000      0.00000000      0.00000000</v>
    <i type="logical" name="LZEROZ"> F  </i>
   </separator>
   <separator name="electronic exchange-correlation" >
    <i type="logical" name="LASPH"> F  </i>
    <i type="logical" name="LMETAGGA"> F  </i>
   </separator>
   <separator name="electronic convergence" >
    <i type="int" name="NELM">   200</i>
    <i type="int" name="NELMDL">    -5</i>
    <i type="int" name="NELMIN">     2</i>
    <i name="ENINI">    600.00000000</i>
    <separator name="electronic convergence detail" >
     <i type="logical" name="LDIAG"> T  </i>
     <i type="logical" name="LSUBROT"> F  </i>
     <i name="WEIMIN">      0.00000000</i>
     <i name="EBREAK">      0.00000001</i>
     <i name="DEPER">      0.30000000</i>
     <i type="int" name="NRMM">     4</i>
     <i name="TIME">      0.40000000</i>
    </separator>
   </separator>
   <separator name="electronic mixer" >
    <i name="AMIX">      0.40000000</i>
    <i name="BMIX">      1.00000000</i>
    <i name="AMIN">      0.10000000</i>
    <i name="AMIX_MAG">      1.60000000</i>
    <i name="BMIX_MAG">      1.00000000</i>
    <separator name="electronic mixer details" >
     <i type="int" name="IMIX">     4</i>
     <i type="logical" name="MIXFIRST"> F  </i>
     <i type="int" name="MAXMIX">   -45</i>
     <i name="WC">    100.00000000</i>
     <i type="int" name="INIMIX">     1</i>
     <i type="int" name="MIXPRE">     1</i>
     <i type="int" name="MREMOVE">     5</i>
    </separator>
   </separator>
   <separator name="electronic dipolcorrection" >
    <i type="logical" name="LDIPOL"> F  </i>
    <i type="logical" name="LMONO"> F  </i>
    <i type="int" name="IDIPOL">     0</i>
    <i name="EPSILON">      1.00000000</i>
    <v name="DIPOL">   -100.00000000   -100.00000000   -100.00000000</v>
    <i name="EFIELD">      0.00000000</i>
   </separator>
  </separator>
  <separator name="grids" >
   <i type="int" name="NGX">    90</i>
   <i type="int" name="NGY">    90</i>
   <i type="int" name="NGZ">    90</i>
   <i type="int" name="NGXF">   180</i>
   <i type="int" name="NGYF">   180</i>
   <i type="int" name="NGZF">   180</i>
   <i type="logical" name="ADDGRID"> F  </i>
  </separator>
  <separator name="ionic" >
   <i type="int" name="NSW">     0</i>
   <i type="int" name="IBRION">    -1</i>
   <i type="int" name="MDALGO">     0</i>
   <i type="int" name="ISIF">     2</i>
   <i name="PSTRESS">      0.00000000</i>
   <i name="EDIFFG">      0.00001000</i>
   <i type="int" name="NFREE">     0</i>
   <i name="POTIM">      0.50000000</i>
   <i name="SMASS">     -3.00000000</i>
   <i name="SCALEE">      1.00000000</i>
  </separator>
  <separator name="ionic md" >
   <i name="TEBEG">      0.00010000</i>
   <i name="TEEND">      0.00010000</i>
   <i type="int" name="NBLOCK">     1</i>
   <i type="int" name="KBLOCK">     1</i>
   <i type="int" name="NPACO">   256</i>
   <i name="APACO">     16.00000000</i>
  </separator>
  <separator name="symmetry" >
   <i type="int" name="ISYM">     2</i>
   <i name="SYMPREC">      0.00001000</i>
  </separator>
  <separator name="dos" >
   <i type="int" name="LORBIT">     0</i>
   <v name="RWIGS">     -1.00000000     -1.00000000</v>
   <i type="int" name="NEDOS">   301</i>
   <i name="EMIN">     10.00000000</i>
   <i name="EMAX">    -10.00000000</i>
   <i name="EFERMI">      0.00000000</i>
  </separator>
  <separator name="writing" >
   <i type="int" name="NWRITE">     2</i>
   <i type="logical" name="LWAVE"> F  </i>
   <i type="logical" name="LDOWNSAMPLE"> F  </i>
   <i type="logical" name="LCHARG"> T  </i>
   <i type="logical" name="LPARD"> F  </i>
   <i type="logical" name="LVTOT"> F  </i>
   <i type="logical" name="LVHAR"> F  </i>
   <i type="logical" name="LELF"> F  </i>
   <i type="logical" name="LOPTICS"> F  </i>
   <v name="STM">      0.00000000      0.00000000      0.00000000      0.00000000      0.00000000      0.00000000      0.00000000</v>
  </separator>
  <separator name="performance" >
   <i type="int" name="NPAR">     4</i>
   <i type="int" name="NSIM">     4</i>
   <i type="int" name="NBLK">    -1</i>
   <i type="logical" name="LPLANE"> T  </i>
   <i type="logical" name="LSCALAPACK"> T  </i>
   <i type="logical" name="LSCAAWARE"> F  </i>
   <i type="logical" name="LSCALU"> F  </i>
   <i type="logical" name="LASYNC"> F  </i>
   <i type="logical" name="LORBITALREAL"> F  </i>
  </separator>
  <separator name="miscellaneous" >
   <i type="int" name="IDIOT">     3</i>
   <i type="int" name="PHON_NSTRUCT">    -1</i>
   <i type="logical" name="LMUSIC"> F  </i>
   <v name="POMASS">     12.01100000      1.00000000</v>
   <v name="DARWINR">      0.00000000      0.00000000</v>
   <v name="DARWINV">      1.00000000      1.00000000</v>
   <i type="logical" name="LCORR"> T  </i>
  </separator>
  <i type="logical" name="GGA_COMPAT"> T  </i>
  <i type="logical" name="LBERRY"> F  </i>
  <i type="int" name="ICORELEVEL">     0</i>
  <i type="logical" name="LDAU"> F  </i>
  <i type="int" name="I_CONSTRAINED_M">     0</i>
  <separator name="electronic exchange-correlation" >
   <i type="string" name="GGA">PE</i>
   <i type="int" name="VOSKOWN">     0</i>
   <i type="logical" name="LHFCALC"> F  </i>
   <i type="string" name="PRECFOCK"></i>
   <i type="logical" name="LSYMGRAD"> F  </i>
   <i type="logical" name="LHFONE"> F  </i>
   <i type="logical" name="LRHFCALC"> F  </i>
   <i type="logical" name="LTHOMAS"> F  </i>
   <i type="logical" name="LMODELHF"> F  </i>
   <i type="logical" name="LFOCKACE"> F  </i>
   <i name="ENCUT4O">     -1.00000000</i>
   <i type="int" name="EXXOEP">     0</i>
   <i type="int" name="FOURORBIT">     0</i>
   <i name="AEXX">      0.00000000</i>
   <i name="HFALPHA">      0.00000000</i>
   <i name="MCALPHA">      0.00000000</i>
   <i name="ALDAX">      1.00000000</i>
   <i name="AGGAX">      1.00000000</i>
   <i name="ALDAC">      1.00000000</i>
   <i name="AGGAC">      1.00000000</i>
   <i type="int" name="NKREDX">     1</i>
   <i type="int" name="NKREDY">     1</i>
   <i type="int" name="NKREDZ">     1</i>
   <i type="logical" name="SHIFTRED"> F  </i>
   <i type="logical" name="ODDONLY"> F  </i>
   <i type="logical" name="EVENONLY"> F  </i>
   <i type="int" name="LMAXFOCK">     0</i>
   <i type="int" name="NMAXFOCKAE">     0</i>
   <i type="logical" name="LFOCKAEDFT"> F  </i>
   <i name="HFSCREEN">      0.00000000</i>
   <i name="HFSCREENC">      0.00000000</i>
   <i type="int" name="NBANDSGWLOW">     0</i>
  </separator>
  <separator name="vdW DFT" >
   <i type="logical" name="LUSE_VDW"> F  </i>
   <i name="Zab_VDW">     -0.84910000</i>
   <i name="PARAM1">      0.12340000</i>
   <i name="PARAM2">      1.00000000</i>
   <i name="PARAM3">      0.00000000</i>
  </separator>
  <separator name="model GW" >
   <i type="int" name="MODEL_GW">     0</i>
   <i name="MODEL_EPS0">     59.27388459</i>
   <i name="MODEL_ALPHA">      1.00000000</i>
  </separator>
  <separator name="linear response parameters" >
   <i type="logical" name="LEPSILON"> F  </i>
   <i type="logical" name="LRPA"> F  </i>
   <i type="logical" name="LNABLA"> F  </i>
   <i type="logical" name="LVEL"> F  </i>
   <i type="int" name="KINTER">     0</i>
   <i name="CSHIFT">      0.10000000</i>
   <i name="OMEGAMAX">     -1.00000000</i>
   <i name="DEG_THRESHOLD">      0.00200000</i>
   <i name="RTIME">     -0.10000000</i>
   <i name="WPLASMAI">      0.00000000</i>
   <v name="DFIELD">      0.00000000      0.00000000      0.00000000</v>
   <v name="WPLASMA">      0.00000000      0.00000000      0.00000000      0.00000000      0.00000000      0.00000000      0.00000000      0.00000000      0.00000000</v>
  </separator>
  <separator name="orbital magnetization" >
   <i type="logical" name="NUCIND"> F  </i>
   <v name="MAGPOS">      0.00000000      0.00000000      0.00000000</v>
   <i type="logical" name="LNICSALL"> T  </i>
   <i type="logical" name="ORBITALMAG"> F  </i>
   <i type="logical" name="LMAGBLOCH"> F  </i>
   <i type="logical" name="LCHIMAG"> F  </i>
   <i type="logical" name="LGAUGE"> T  </i>
   <i type="int" name="MAGATOM">     0</i>
   <v name="MAGDIPOL">      0.00000000      0.00000000      0.00000000</v>
   <v name="AVECCONST">      0.00000000      0.00000000      0.00000000</v>
  </separator>
  <separator name="response functions" >
   <i type="logical" name="LFINITE_TEMPERATURE"> F  </i>
   <i type="logical" name="LADDER"> F  </i>
   <i type="logical" name="LRPAFORCE"> F  </i>
   <i type="logical" name="LFXC"> F  </i>
   <i type="logical" name="LHARTREE"> T  </i>
   <i type="int" name="IBSE">     0</i>
   <v type="int" name="KPOINT">    -1     0     0     0</v>
   <i type="logical" name="LTCTC"> F  </i>
   <i type="logical" name="LTCTE"> F  </i>
   <i type="logical" name="LTETE"> F  </i>
   <i type="logical" name="LTRIPLET"> F  </i>
   <i type="logical" name="LFXCEPS"> F  </i>
   <i type="logical" name="LFXHEG"> F  </i>
   <i type="int" name="NATURALO">     2</i>
   <i type="logical" name="LHOLEGF"> F  </i>
   <i type="logical" name="L2ORDER"> F  </i>
   <i type="logical" name="LDMP1"> F  </i>
   <i type="logical" name="LMP2LT"> F  </i>
   <i type="logical" name="LSMP2LT"> F  </i>
   <i type="logical" name="LGWLF"> F  </i>
   <i name="ENCUTGW">     -2.00000000</i>
   <i name="ENCUTGWSOFT">     -2.00000000</i>
   <i name="ENCUTLF">     -1.00000000</i>
   <i type="logical" name="LESF_SPLINES"> F  </i>
   <i type="int" name="LMAXMP2">    -1</i>
   <i name="SCISSOR">      0.00000000</i>
   <i type="int" name="NOMEGA">     0</i>
   <i type="int" name="NOMEGAR">     0</i>
   <i type="int" name="NBANDSGW">    -1</i>
   <i type="int" name="NBANDSO">    -1</i>
   <i type="int" name="NBANDSV">    -1</i>
   <i type="int" name="NELM">   200</i>
   <i type="int" name="NELMHF">     1</i>
   <i type="int" name="DIM">     3</i>
   <i type="int" name="IESPILON">     4</i>
   <i type="int" name="ANTIRES">     0</i>
   <i name="OMEGAMAX">    -30.00000000</i>
   <i name="OMEGAMIN">    -30.00000000</i>
   <i name="OMEGATL">   -200.00000000</i>
   <i type="int" name="OMEGAGRID">     0</i>
   <i name="CSHIFT">     -0.10000000</i>
   <i type="logical" name="LSELFENERGY"> F  </i>
   <i type="logical" name="LSPECTRAL"> F  </i>
   <i type="logical" name="LSPECTRALGW"> F  </i>
   <i type="logical" name="LSINGLES"> F  </i>
   <i type="logical" name="LFERMIGW"> F  </i>
   <i type="logical" name="ODDONLYGW"> F  </i>
   <i type="logical" name="EVENONLYGW"> F  </i>
   <i type="int" name="NKREDLFX">     1</i>
   <i type="int" name="NKREDLFY">     1</i>
   <i type="int" name="NKREDLFZ">     1</i>
   <i type="int" name="MAXMEM">  2800</i>
   <i type="int" name="TELESCOPE">     0</i>
   <i type="int" name="NTAUPAR">    -1</i>
   <i type="int" name="NOMEGAPAR">    -1</i>
   <i name="DAMP_NEWTON">      0.80000001</i>
   <i name="LAMBDA">      1.00000000</i>
  </separator>
  <separator name="External order field" >
   <i name="OFIELD_KAPPA">      0.00000000</i>
   <v name="OFIELD_K">      0.00000000      0.00000000      0.00000000</v>
   <i name="OFIELD_Q6_NEAR">      0.00000000</i>
   <i name="OFIELD_Q6_FAR">      0.00000000</i>
   <i name="OFIELD_A">      0.00000000</i>
  </separator>
 </parameters>
 <atominfo>
  <atoms>      12 </atoms>
  <types>       2 </types>
  <array name="atoms" >
   <dimension dim="1">ion</dimension>
   <field type="string">element</field>
   <field type="int">atomtype</field>
   <set>
    <rc><c>C </c><c>   1</c></rc>
    <rc><c>C </c><c>   1</c></rc>
    <rc><c>C </c><c>   1</c></rc>
    <rc><c>C </c><c>   1</c></rc>
    <rc><c>C </c><c>   1</c></rc>
    <rc><c>C </c><c>   1</c></rc>
    <rc><c>H </c><c>   2</c></rc>
    <rc><c>H </c><c>   2</c></rc>
    <rc><c>H </c><c>   2</c></rc>
    <rc><c>H </c><c>   2</c></rc>
    <rc><c>H </c><c>   2</c></rc>
    <rc><c>H </c><c>   2</c></rc>
   </set>
  </array>
  <array name="atomtypes" >
   <dimension dim="1">type</dimension>
   <field type="int">atomspertype</field>
   <field type="string">element</field>
   <field>mass</field>
   <field>valence</field>
   <field type="string">pseudopotential</field>
   <set>
    <rc><c>   6</c><c>C </c><c>     12.01100000</c><c>      4.00000000</c><c>  PAW_PBE C 08Apr2002                   </c></rc>
    <rc><c>   6</c><c>H </c><c>      1.00000000</c><c>      1.00000000</c><c>  PAW_PBE H 15Jun2001                   </c></rc>
   </set>
  </array>
 </atominfo>
 <structure name="initialpos" >
  <crystal>
   <varray name="basis" >
    <v>      10.58354422       0.00000000       0.00000000 </v>
    <v>       0.00000000      10.58354422       0.00000000 </v>
    <v>       0.00000000       0.00000000      10.58354422 </v>
   </varray>
   <i name="volume">   1185.47769178 </i>
   <varray name="rec_basis" >
    <v>       0.09448631       0.00000000       0.00000000 </v>
    <v>       0.00000000       0.09448631       0.00000000 </v>
    <v>       0.00000000       0.00000000       0.09448631 </v>
   </varray>
  </crystal>
  <varray name="positions" >
   <v>       0.50423630       0.63147325       0.50024415 </v>
   <v>       0.38221850       0.56907715       0.50841060 </v>
   <v>       0.38282565       0.43639285       0.49967385 </v>
   <v>       0.49587615       0.36622005       0.50011960 </v>
   <v>       0.61576170       0.43604910       0.50554815 </v>
   <v>       0.61814275       0.56840185       0.49735440 </v>
   <v>       0.49583965       0.72700190       0.50102085 </v>
   <v>       0.29537535       0.61942275       0.50815230 </v>
   <v>       0.29426735       0.37971260       0.48338525 </v>
   <v>       0.49821365       0.26366490       0.50170520 </v>
   <v>       0.70957555       0.38637580       0.50909130 </v>
   <v>       0.70766735       0.61620765       0.48529445 </v>
  </varray>
 </structure>
 <calculation>
  <scstep>
   <time name="dav">    0.22    0.22</time>
   <time name="total">    0.49    0.49</time>
   <energy>
    <i name="alphaZ">      3.48814018 </i>
    <i name="ewald">   1102.47852679 </i>
    <i name="hartreedc">  -1741.37166892 </i>
    <i name="XCdc">     90.98769068 </i>
    <i name="pawpsdc">    663.93644290 </i>
    <i name="pawaedc">   -667.40614445 </i>
    <i name="eentropy">     -0.00000000 </i>
    <i name="bandstr">   -196.86784559 </i>
    <i name="atom">    957.82965714 </i>
    <i name="e_fr_energy">    213.07479872 </i>
    <i name="e_wo_entrp">    213.07479872 </i>
    <i name="e_0_energy">    213.07479872 </i>
   </energy>
  </scstep>
  <scstep>
   <time name="dav">    0.26    0.26</time>
   <time name="total">    0.26    0.26</time>
   <energy>
    <i name="e_fr_energy">     -4.33197792 </i>
    <i name="e_wo_entrp">     -4.33197792 </i>
    <i name="e_0_energy">     -4.33197792 </i>
   </energy>
  </scstep>
  <scstep>
   <time name="dav">    0.21    0.22</time>
   <time name="total">    0.21    0.22</time>
   <energy>
    <i name="e_fr_energy">    -77.74687000 </i>
    <i name="e_wo_entrp">    -77.74687000 </i>
    <i name="e_0_energy">    -77.74687000 </i>
   </energy>
  </scstep>
  <scstep>
   <time name="dav">    0.19    0.20</time>
   <time name="total">    0.19    0.20</time>
   <energy>
    <i name="e_fr_energy">    -83.25601194 </i>
    <i name="e_wo_entrp">    -83.25601194 </i>
    <i name="e_0_energy">    -83.25601194 </i>
   </energy>
  </scstep>
  <scstep>
   <time name="dav">    0.25    0.26</time>
   <time name="total">    0.30    0.30</time>
   <energy>
    <i name="e_fr_energy">    -83.37364363 </i>
    <i name="e_wo_entrp">    -83.37364363 </i>
    <i name="e_0_energy">    -83.37364363 </i>
   </energy>
  </scstep>
  <scstep>
   <time name="dav">    0.24    0.24</time>
   <time name="total">    0.55    0.56</time>
   <energy>
    <i name="e_fr_energy">    -77.44373732 </i>
    <i name="e_wo_entrp">    -77.44373732 </i>
    <i name="e_0_energy">    -77.44373732 </i>
   </energy>
  </scstep>
  <scstep>
   <time name="dav">    0.26    0.26</time>
   <time name="total">    0.56    0.57</time>
   <energy>
    <i name="e_fr_energy">    -75.69373757 </i>
    <i name="e_wo_entrp">    -75.69373757 </i>
    <i name="e_0_energy">    -75.69373757 </i>
   </energy>
  </scstep>
  <scstep>
   <time name="dav">    0.21    0.22</time>
   <time name="total">    0.52    0.52</time>
   <energy>
    <i name="e_fr_energy">    -75.52903095 </i>
    <i name="e_wo_entrp">    -75.52903095 </i>
    <i name="e_0_energy">    -75.52903095 </i>
   </energy>
  </scstep>
  <scstep>
   <time name="dav">    0.21    0.21</time>
   <time name="total">    0.51    0.52</time>
   <energy>
    <i name="e_fr_energy">    -75.49955151 </i>
    <i name="e_wo_entrp">    -75.49955151 </i>
    <i name="e_0_energy">    -75.49955151 </i>
   </energy>
  </scstep>
  <scstep>
   <time name="dav">    0.23    0.24</time>
   <time name="total">    0.54    0.54</time>
   <energy>
    <i name="e_fr_energy">    -75.49501275 </i>
    <i name="e_wo_entrp">    -75.49501275 </i>
    <i name="e_0_energy">    -75.49501275 </i>
   </energy>
  </scstep>
  <scstep>
   <time name="dav">    0.19    0.19</time>
   <time name="total">    0.50    0.51</time>
   <energy>
    <i name="e_fr_energy">    -75.48811732 </i>
    <i name="e_wo_entrp">    -75.48811732 </i>
    <i name="e_0_energy">    -75.48811732 </i>
   </energy>
  </scstep>
  <scstep>
   <time name="dav">    0.21    0.21</time>
   <time name="total">    0.50    0.51</time>
   <energy>
    <i name="e_fr_energy">    -75.49282034 </i>
    <i name="e_wo_entrp">    -75.49282034 </i>
    <i name="e_0_energy">    -75.49282034 </i>
   </energy>
  </scstep>
  <scstep>
   <time name="dav">    0.19    0.19</time>
   <time name="total">    0.48    0.48</time>
   <energy>
    <i name="e_fr_energy">    -75.50337461 </i>
    <i name="e_wo_entrp">    -75.50337461 </i>
    <i name="e_0_energy">    -75.50337461 </i>
   </energy>
  </scstep>
  <scstep>
   <time name="dav">    0.21    0.21</time>
   <time name="total">    0.50    0.50</time>
   <energy>
    <i name="e_fr_energy">    -75.50938570 </i>
    <i name="e_wo_entrp">    -75.50938570 </i>
    <i name="e_0_energy">    -75.50938570 </i>
   </energy>
  </scstep>
  <scstep>
   <time name="dav">    0.21    0.22</time>
   <time name="total">    0.50    0.50</time>
   <energy>
    <i name="e_fr_energy">    -75.51214727 </i>
    <i name="e_wo_entrp">    -75.51214727 </i>
    <i name="e_0_energy">    -75.51214727 </i>
   </energy>
  </scstep>
  <scstep>
   <time name="dav">    0.21    0.22</time>
   <time name="total">    0.50    0.50</time>
   <energy>
    <i name="e_fr_energy">    -75.51323549 </i>
    <i name="e_wo_entrp">    -75.51323549 </i>
    <i name="e_0_energy">    -75.51323549 </i>
   </energy>
  </scstep>
  <scstep>
   <time name="dav">    0.21    0.21</time>
   <time name="total">    0.50    0.50</time>
   <energy>
    <i name="e_fr_energy">    -75.51377369 </i>
    <i name="e_wo_entrp">    -75.51377369 </i>
    <i name="e_0_energy">    -75.51377369 </i>
   </energy>
  </scstep>
  <scstep>
   <time name="dav">    0.24    0.24</time>
   <time name="total">    0.54    0.54</time>
   <energy>
    <i name="e_fr_energy">    -75.51388362 </i>
    <i name="e_wo_entrp">    -75.51388362 </i>
    <i name="e_0_energy">    -75.51388362 </i>
   </energy>
  </scstep>
  <scstep>
   <time name="dav">    0.19    0.19</time>
   <time name="total">    0.49    0.49</time>
   <energy>
    <i name="e_fr_energy">    -75.51391716 </i>
    <i name="e_wo_entrp">    -75.51391716 </i>
    <i name="e_0_energy">    -75.51391716 </i>
   </energy>
  </scstep>
  <scstep>
   <time name="dav">    0.19    0.20</time>
   <time name="total">    0.49    0.49</time>
   <energy>
    <i name="e_fr_energy">    -75.51392655 </i>
    <i name="e_wo_entrp">    -75.51392655 </i>
    <i name="e_0_energy">    -75.51392655 </i>
   </energy>
  </scstep>
  <scstep>
   <time name="dav">    0.19    0.19</time>
   <time name="total">    0.49    0.49</time>
   <energy>
    <i name="e_fr_energy">    -75.51393189 </i>
    <i name="e_wo_entrp">    -75.51393189 </i>
    <i name="e_0_energy">    -75.51393189 </i>
   </energy>
  </scstep>
  <scstep>
   <time name="dav">    0.19    0.19</time>
   <time name="total">    0.45    0.45</time>
   <energy>
    <i name="alphaZ">      3.48814018 </i>
    <i name="ewald">   1102.47852679 </i>
    <i name="hartreedc">  -1884.74700849 </i>
    <i name="XCdc">     97.79542040 </i>
    <i name="pawpsdc">   2413.13631021 </i>
    <i name="pawaedc">  -2417.36323323 </i>
    <i name="eentropy">     -0.00000000 </i>
    <i name="bandstr">   -348.13174555 </i>
    <i name="atom">    957.82965714 </i>
    <i name="e_fr_energy">    -75.51393255 </i>
    <i name="e_wo_entrp">    -75.51393255 </i>
    <i name="e_0_energy">    -75.51393255 </i>
   </energy>
  </scstep>
  <structure>
   <crystal>
    <varray name="basis" >
     <v>      10.58354422       0.00000000       0.00000000 </v>
     <v>       0.00000000      10.58354422       0.00000000 </v>
     <v>       0.00000000       0.00000000      10.58354422 </v>
    </varray>
    <i name="volume">   1185.47769178 </i>
    <varray name="rec_basis" >
     <v>       0.09448631       0.00000000       0.00000000 </v>
     <v>       0.00000000       0.09448631       0.00000000 </v>
     <v>       0.00000000       0.00000000       0.09448631 </v>
    </varray>
   </crystal>
   <varray name="positions" >
    <v>       0.50423630       0.63147325       0.50024415 </v>
    <v>       0.38221850       0.56907715       0.50841060 </v>
    <v>       0.38282565       0.43639285       0.49967385 </v>
    <v>       0.49587615       0.36622005       0.50011960 </v>
    <v>       0.61576170       0.43604910       0.50554815 </v>
    <v>       0.61814275       0.56840185       0.49735440 </v>
    <v>       0.49583965       0.72700190       0.50102085 </v>
    <v>       0.29537535       0.61942275       0.50815230 </v>
    <v>       0.29426735       0.37971260       0.48338525 </v>
    <v>       0.49821365       0.26366490       0.50170520 </v>
    <v>       0.70957555       0.38637580       0.50909130 </v>
    <v>       0.70766735       0.61620765       0.48529445 </v>
   </varray>
  </structure>
  <varray name="forces" >
   <v>      -2.54802910      -2.46592966       0.47857660 </v>
   <v>       2.96665060      -1.14255405      -0.69197857 </v>
   <v>      -0.56471324      -0.93057449      -0.32089370 </v>
   <v>       2.07372908       2.10544928       0.47169946 </v>
   <v>      -0.70866429      -1.39748319      -0.36899996 </v>
   <v>      -0.41783763      -1.18509422       0.04045291 </v>
   <v>       0.25322041       3.25451112      -0.10388768 </v>
   <v>      -0.69618955       0.66030641       0.05167682 </v>
   <v>       0.59421488       0.74504256       0.46442601 </v>
   <v>      -0.12716326      -0.09737791      -0.11169281 </v>
   <v>      -1.01527873       0.16944812      -0.07312393 </v>
   <v>       0.19006083       0.28425601       0.16374483 </v>
  </varray>
  <varray name="stress" >
   <v>      -8.66530282      -4.06277914      -0.07915061 </v>
   <v>      -4.06277913       1.82855616      -0.29678484 </v>
   <v>      -0.07915060      -0.29678484      -0.43522501 </v>
  </varray>
  <energy>
   <i name="e_fr_energy">    -75.51393255 </i>
   <i name="e_wo_entrp">    -75.51393255 </i>
   <i name="e_0_energy">    -75.51393255 </i>
  </energy>
  <time name="totalsc">   15.50   15.70</time>
  <eigenvalues>
   <array>
    <dimension dim="1">band</dimension>
    <dimension dim="2">kpoint</dimension>
    <dimension dim="3">spin</dimension>
    <field>eigene</field>
    <field>occ</field>
    <set>
     <set comment="spin 1">
      <set comment="kpoint 1">
       <r>  -20.5428    1.0000 </r>
       <r>  -18.0803    1.0000 </r>
       <r>  -17.7345    1.0000 </r>
       <r>  -14.5381    1.0000 </r>
       <r>  -14.2061    1.0000 </r>
       <r>  -12.3781    1.0000 </r>
       <r>  -11.0022    1.0000 </r>
       <r>  -10.2718    1.0000 </r>
       <r>   -9.9261    1.0000 </r>
       <r>   -9.6156    1.0000 </r>
       <r>   -8.5315    1.0000 </r>
       <r>   -7.9927    1.0000 </r>
       <r>   -7.5527    1.0000 </r>
       <r>   -6.0140    1.0000 </r>
       <r>   -5.6795    1.0000 </r>
       <r>   -1.1507    0.0000 </r>
       <r>   -0.7977    0.0000 </r>
       <r>   -0.4177    0.0000 </r>
       <r>    0.6940    0.0000 </r>
       <r>    0.8278    0.0000 </r>
       <r>    0.8647    0.0000 </r>
       <r>    0.9169    0.0000 </r>
       <r>    0.9900    0.0000 </r>
       <r>    1.4564    0.0000 </r>
      </set>
     </set>
    </set>
   </array>
  </eigenvalues>
  <separator name="orbital magnetization" >
   <v name="MAGDIPOLOUT">      0.00000000      0.00000000      0.00000000</v>
  </separator>
  <dos>
   <i name="efermi">     -5.41921831 </i>
   <total>
    <array>
     <dimension dim="1">gridpoints</dimension>
     <dimension dim="2">spin</dimension>
     <field>energy</field>
     <field>total</field>
     <field>integrated</field>
     <set>
      <set comment="spin 1">
       <r>   -21.6427     0.0000     0.0000 </r>
       <r>   -21.5620     0.0000     0.0000 </r>
       <r>   -21.4814     0.0000     0.0000 </r>
       <r>   -21.4007     0.0000     0.0000 </r>
       <r>   -21.3201     0.0000     0.0000 </r>
       <r>   -21.2394     0.0000     0.0000 </r>
       <r>   -21.1587     0.0000     0.0000 </r>
       <r>   -21.0781     0.0000     0.0000 </r>
       <r>   -20.9974     0.0000     0.0000 </r>
       <r>   -20.9167     0.0000     0.0000 </r>
       <r>   -20.8361     0.0000     0.0000 </r>
       <r>   -20.7554     0.0000     0.0000 </r>
       <r>   -20.6747     0.0023     0.0002 </r>
       <r>   -20.5941     1.8143     0.1465 </r>
       <r>   -20.5134    17.9352     1.5933 </r>
       <r>   -20.4328     5.0193     1.9981 </r>
       <r>   -20.3521     0.0231     2.0000 </r>
       <r>   -20.2714     0.0000     2.0000 </r>
       <r>   -20.1908     0.0000     2.0000 </r>
       <r>   -20.1101     0.0000     2.0000 </r>
       <r>   -20.0294     0.0000     2.0000 </r>
       <r>   -19.9488     0.0000     2.0000 </r>
       <r>   -19.8681     0.0000     2.0000 </r>
       <r>   -19.7874     0.0000     2.0000 </r>
       <r>   -19.7068     0.0000     2.0000 </r>
       <r>   -19.6261     0.0000     2.0000 </r>
       <r>   -19.5455     0.0000     2.0000 </r>
       <r>   -19.4648     0.0000     2.0000 </r>
       <r>   -19.3841     0.0000     2.0000 </r>
       <r>   -19.3035     0.0000     2.0000 </r>
       <r>   -19.2228     0.0000     2.0000 </r>
       <r>   -19.1421     0.0000     2.0000 </r>
       <r>   -19.0615     0.0000     2.0000 </r>
       <r>   -18.9808     0.0000     2.0000 </r>
       <r>   -18.9001     0.0000     2.0000 </r>
       <r>   -18.8195     0.0000     2.0000 </r>
       <r>   -18.7388     0.0000     2.0000 </r>
       <r>   -18.6582     0.0000     2.0000 </r>
       <r>   -18.5775     0.0000     2.0000 </r>
       <r>   -18.4968     0.0000     2.0000 </r>
       <r>   -18.4162     0.0000     2.0000 </r>
       <r>   -18.3355     0.0000     2.0000 </r>
       <r>   -18.2548     0.0000     2.0000 </r>
       <r>   -18.1742     0.0981     2.0079 </r>
       <r>   -18.0935     8.6816     2.7082 </r>
       <r>   -18.0128    15.3143     3.9435 </r>
       <r>   -17.9322     0.7000     4.0000 </r>
       <r>   -17.8515     0.0119     4.0009 </r>
       <r>   -17.7709     3.7509     4.3035 </r>
       <r>   -17.6902    18.4238     5.7896 </r>
       <r>   -17.6095     2.6030     5.9996 </r>
       <r>   -17.5289     0.0051     6.0000 </r>
       <r>   -17.4482     0.0000     6.0000 </r>
       <r>   -17.3675     0.0000     6.0000 </r>
       <r>   -17.2869     0.0000     6.0000 </r>
       <r>   -17.2062     0.0000     6.0000 </r>
       <r>   -17.1255     0.0000     6.0000 </r>
       <r>   -17.0449     0.0000     6.0000 </r>
       <r>   -16.9642     0.0000     6.0000 </r>
       <r>   -16.8836     0.0000     6.0000 </r>
       <r>   -16.8029     0.0000     6.0000 </r>
       <r>   -16.7222     0.0000     6.0000 </r>
       <r>   -16.6416     0.0000     6.0000 </r>
       <r>   -16.5609     0.0000     6.0000 </r>
       <r>   -16.4802     0.0000     6.0000 </r>
       <r>   -16.3996     0.0000     6.0000 </r>
       <r>   -16.3189     0.0000     6.0000 </r>
       <r>   -16.2382     0.0000     6.0000 </r>
       <r>   -16.1576     0.0000     6.0000 </r>
       <r>   -16.0769     0.0000     6.0000 </r>
       <r>   -15.9962     0.0000     6.0000 </r>
       <r>   -15.9156     0.0000     6.0000 </r>
       <r>   -15.8349     0.0000     6.0000 </r>
       <r>   -15.7543     0.0000     6.0000 </r>
       <r>   -15.6736     0.0000     6.0000 </r>
       <r>   -15.5929     0.0000     6.0000 </r>
       <r>   -15.5123     0.0000     6.0000 </r>
       <r>   -15.4316     0.0000     6.0000 </r>
       <r>   -15.3509     0.0000     6.0000 </r>
       <r>   -15.2703     0.0000     6.0000 </r>
       <r>   -15.1896     0.0000     6.0000 </r>
       <r>   -15.1089     0.0000     6.0000 </r>
       <r>   -15.0283     0.0000     6.0000 </r>
       <r>   -14.9476     0.0000     6.0000 </r>
       <r>   -14.8670     0.0000     6.0000 </r>
       <r>   -14.7863     0.0000     6.0000 </r>
       <r>   -14.7056     0.0000     6.0000 </r>
       <r>   -14.6250     0.1735     6.0140 </r>
       <r>   -14.5443    10.4932     6.8604 </r>
       <r>   -14.4636    13.6908     7.9648 </r>
       <r>   -14.3830     0.4366     8.0000 </r>
       <r>   -14.3023     0.0810     8.0065 </r>
       <r>   -14.2216     8.1122     8.6609 </r>
       <r>   -14.1410    15.7910     9.9346 </r>
       <r>   -14.0603     0.8098    10.0000 </r>
       <r>   -13.9797     0.0005    10.0000 </r>
       <r>   -13.8990     0.0000    10.0000 </r>
       <r>   -13.8183     0.0000    10.0000 </r>
       <r>   -13.7377     0.0000    10.0000 </r>
       <r>   -13.6570     0.0000    10.0000 </r>
       <r>   -13.5763     0.0000    10.0000 </r>
       <r>   -13.4957     0.0000    10.0000 </r>
       <r>   -13.4150     0.0000    10.0000 </r>
       <r>   -13.3343     0.0000    10.0000 </r>
       <r>   -13.2537     0.0000    10.0000 </r>
       <r>   -13.1730     0.0000    10.0000 </r>
       <r>   -13.0924     0.0000    10.0000 </r>
       <r>   -13.0117     0.0000    10.0000 </r>
       <r>   -12.9310     0.0000    10.0000 </r>
       <r>   -12.8504     0.0000    10.0000 </r>
       <r>   -12.7697     0.0000    10.0000 </r>
       <r>   -12.6890     0.0000    10.0000 </r>
       <r>   -12.6084     0.0000    10.0000 </r>
       <r>   -12.5277     0.0003    10.0000 </r>
       <r>   -12.4470     0.6344    10.0512 </r>
       <r>   -12.3664    14.9843    11.2599 </r>
       <r>   -12.2857     9.0641    11.9910 </r>
       <r>   -12.2051     0.1112    12.0000 </r>
       <r>   -12.1244     0.0000    12.0000 </r>
       <r>   -12.0437     0.0000    12.0000 </r>
       <r>   -11.9631     0.0000    12.0000 </r>
       <r>   -11.8824     0.0000    12.0000 </r>
       <r>   -11.8017     0.0000    12.0000 </r>
       <r>   -11.7211     0.0000    12.0000 </r>
       <r>   -11.6404     0.0000    12.0000 </r>
       <r>   -11.5597     0.0000    12.0000 </r>
       <r>   -11.4791     0.0000    12.0000 </r>
       <r>   -11.3984     0.0000    12.0000 </r>
       <r>   -11.3178     0.0000    12.0000 </r>
       <r>   -11.2371     0.0000    12.0000 </r>
       <r>   -11.1564     0.0002    12.0000 </r>
       <r>   -11.0758     0.4635    12.0374 </r>
       <r>   -10.9951    13.9000    13.1586 </r>
       <r>   -10.9144    10.2686    13.9869 </r>
       <r>   -10.8338     0.1621    14.0000 </r>
       <r>   -10.7531     0.0000    14.0000 </r>
       <r>   -10.6724     0.0000    14.0000 </r>
       <r>   -10.5918     0.0000    14.0000 </r>
       <r>   -10.5111     0.0000    14.0000 </r>
       <r>   -10.4305     0.0001    14.0000 </r>
       <r>   -10.3498     0.3398    14.0274 </r>
       <r>   -10.2691    12.8079    15.0606 </r>
       <r>   -10.1885    11.4184    15.9816 </r>
       <r>   -10.1078     0.2281    16.0000 </r>
       <r>   -10.0271     0.0527    16.0042 </r>
       <r>    -9.9465     6.9341    16.5636 </r>
       <r>    -9.8658    16.7118    17.9116 </r>
       <r>    -9.7851     1.0949    17.9999 </r>
       <r>    -9.7045     0.1494    18.0120 </r>
       <r>    -9.6238     9.9829    18.8172 </r>
       <r>    -9.5432    14.1629    19.9597 </r>
       <r>    -9.4625     0.4997    20.0000 </r>
       <r>    -9.3818     0.0002    20.0000 </r>
       <r>    -9.3012     0.0000    20.0000 </r>
       <r>    -9.2205     0.0000    20.0000 </r>
       <r>    -9.1398     0.0000    20.0000 </r>
       <r>    -9.0592     0.0000    20.0000 </r>
       <r>    -8.9785     0.0000    20.0000 </r>
       <r>    -8.8978     0.0000    20.0000 </r>
       <r>    -8.8172     0.0000    20.0000 </r>
       <r>    -8.7365     0.0000    20.0000 </r>
       <r>    -8.6559     0.0054    20.0004 </r>
       <r>    -8.5752     2.6829    20.2169 </r>
       <r>    -8.4945    18.4451    21.7047 </r>
       <r>    -8.4139     3.6500    21.9991 </r>
       <r>    -8.3332     0.0108    22.0000 </r>
       <r>    -8.2525     0.0000    22.0000 </r>
       <r>    -8.1719     0.0000    22.0000 </r>
       <r>    -8.0912     0.0660    22.0053 </r>
       <r>    -8.0105     7.5402    22.6135 </r>
       <r>    -7.9299    16.2502    23.9243 </r>
       <r>    -7.8492     0.9372    24.0000 </r>
       <r>    -7.7685     0.0006    24.0000 </r>
       <r>    -7.6879     0.0016    24.0001 </r>
       <r>    -7.6072     1.5208    24.1228 </r>
       <r>    -7.5266    17.5658    25.5397 </r>
       <r>    -7.4459     5.6748    25.9975 </r>
       <r>    -7.3652     0.0313    26.0000 </r>
       <r>    -7.2846     0.0000    26.0000 </r>
       <r>    -7.2039     0.0000    26.0000 </r>
       <r>    -7.1232     0.0000    26.0000 </r>
       <r>    -7.0426     0.0000    26.0000 </r>
       <r>    -6.9619     0.0000    26.0000 </r>
       <r>    -6.8812     0.0000    26.0000 </r>
       <r>    -6.8006     0.0000    26.0000 </r>
       <r>    -6.7199     0.0000    26.0000 </r>
       <r>    -6.6393     0.0000    26.0000 </r>
       <r>    -6.5586     0.0000    26.0000 </r>
       <r>    -6.4779     0.0000    26.0000 </r>
       <r>    -6.3973     0.0000    26.0000 </r>
       <r>    -6.3166     0.0000    26.0000 </r>
       <r>    -6.2359     0.0000    26.0000 </r>
       <r>    -6.1553     0.0008    26.0001 </r>
       <r>    -6.0746     1.0699    26.0864 </r>
       <r>    -5.9939    16.6453    27.4290 </r>
       <r>    -5.9133     7.0237    27.9956 </r>
       <r>    -5.8326     0.0547    28.0000 </r>
       <r>    -5.7520     0.5012    28.0404 </r>
       <r>    -5.6713    14.1734    29.1837 </r>
       <r>    -5.5906     9.9715    29.9881 </r>
       <r>    -5.5100     0.1480    30.0000 </r>
       <r>    -5.4293     0.0000    30.0000 </r>
       <r>    -5.3486     0.0000    30.0000 </r>
       <r>    -5.2680     0.0000    30.0000 </r>
       <r>    -5.1873     0.0000    30.0000 </r>
       <r>    -5.1066     0.0000    30.0000 </r>
       <r>    -5.0260     0.0000    30.0000 </r>
       <r>    -4.9453     0.0000    30.0000 </r>
       <r>    -4.8647     0.0000    30.0000 </r>
       <r>    -4.7840     0.0000    30.0000 </r>
       <r>    -4.7033     0.0000    30.0000 </r>
       <r>    -4.6227     0.0000    30.0000 </r>
       <r>    -4.5420     0.0000    30.0000 </r>
       <r>    -4.4613     0.0000    30.0000 </r>
       <r>    -4.3807     0.0000    30.0000 </r>
       <r>    -4.3000     0.0000    30.0000 </r>
       <r>    -4.2193     0.0000    30.0000 </r>
       <r>    -4.1387     0.0000    30.0000 </r>
       <r>    -4.0580     0.0000    30.0000 </r>
       <r>    -3.9774     0.0000    30.0000 </r>
       <r>    -3.8967     0.0000    30.0000 </r>
       <r>    -3.8160     0.0000    30.0000 </r>
       <r>    -3.7354     0.0000    30.0000 </r>
       <r>    -3.6547     0.0000    30.0000 </r>
       <r>    -3.5740     0.0000    30.0000 </r>
       <r>    -3.4934     0.0000    30.0000 </r>
       <r>    -3.4127     0.0000    30.0000 </r>
       <r>    -3.3320     0.0000    30.0000 </r>
       <r>    -3.2514     0.0000    30.0000 </r>
       <r>    -3.1707     0.0000    30.0000 </r>
       <r>    -3.0901     0.0000    30.0000 </r>
       <r>    -3.0094     0.0000    30.0000 </r>
       <r>    -2.9287     0.0000    30.0000 </r>
       <r>    -2.8481     0.0000    30.0000 </r>
       <r>    -2.7674     0.0000    30.0000 </r>
       <r>    -2.6867     0.0000    30.0000 </r>
       <r>    -2.6061     0.0000    30.0000 </r>
       <r>    -2.5254     0.0000    30.0000 </r>
       <r>    -2.4447     0.0000    30.0000 </r>
       <r>    -2.3641     0.0000    30.0000 </r>
       <r>    -2.2834     0.0000    30.0000 </r>
       <r>    -2.2028     0.0000    30.0000 </r>
       <r>    -2.1221     0.0000    30.0000 </r>
       <r>    -2.0414     0.0000    30.0000 </r>
       <r>    -1.9608     0.0000    30.0000 </r>
       <r>    -1.8801     0.0000    30.0000 </r>
       <r>    -1.7994     0.0000    30.0000 </r>
       <r>    -1.7188     0.0000    30.0000 </r>
       <r>    -1.6381     0.0000    30.0000 </r>
       <r>    -1.5574     0.0000    30.0000 </r>
       <r>    -1.4768     0.0000    30.0000 </r>
       <r>    -1.3961     0.0000    30.0000 </r>
       <r>    -1.3155     0.0000    30.0000 </r>
       <r>    -1.2348     0.2164    30.0175 </r>
       <r>    -1.1541    11.2381    30.9240 </r>
       <r>    -1.0735    12.9826    31.9712 </r>
       <r>    -0.9928     0.3571    32.0000 </r>
       <r>    -0.9121     0.0151    32.0012 </r>
       <r>    -0.8315     4.1934    32.3395 </r>
       <r>    -0.7508    18.2956    33.8153 </r>
       <r>    -0.6701     2.2865    33.9997 </r>
       <r>    -0.5895     0.0038    34.0000 </r>
       <r>    -0.5088     0.1240    34.0100 </r>
       <r>    -0.4282     9.4041    34.7686 </r>
       <r>    -0.3475    14.6849    35.9531 </r>
       <r>    -0.2668     0.5811    36.0000 </r>
       <r>    -0.1862     0.0002    36.0000 </r>
       <r>    -0.1055     0.0000    36.0000 </r>
       <r>    -0.0248     0.0000    36.0000 </r>
       <r>     0.0558     0.0000    36.0000 </r>
       <r>     0.1365     0.0000    36.0000 </r>
       <r>     0.2172     0.0000    36.0000 </r>
       <r>     0.2978     0.0000    36.0000 </r>
       <r>     0.3785     0.0000    36.0000 </r>
       <r>     0.4592     0.0000    36.0000 </r>
       <r>     0.5398     0.0002    36.0000 </r>
       <r>     0.6205     0.4671    36.0377 </r>
       <r>     0.7011    13.9313    37.1614 </r>
       <r>     0.7818    12.8678    38.1994 </r>
       <r>     0.8625    31.5883    40.7474 </r>
       <r>     0.9431    36.5941    43.6993 </r>
       <r>     1.0238    24.2855    45.6582 </r>
       <r>     1.1045     4.2222    45.9988 </r>
       <r>     1.1851     0.0150    46.0000 </r>
       <r>     1.2658     0.0000    46.0000 </r>
       <r>     1.3465     0.0231    46.0019 </r>
       <r>     1.4271     5.0193    46.4067 </r>
       <r>     1.5078    17.9352    47.8535 </r>
       <r>     1.5884     1.8143    47.9998 </r>
       <r>     1.6691     0.0023    48.0000 </r>
       <r>     1.7498     0.0000    48.0000 </r>
       <r>     1.8304     0.0000    48.0000 </r>
       <r>     1.9111     0.0000    48.0000 </r>
       <r>     1.9918     0.0000    48.0000 </r>
       <r>     2.0724     0.0000    48.0000 </r>
       <r>     2.1531     0.0000    48.0000 </r>
       <r>     2.2338     0.0000    48.0000 </r>
       <r>     2.3144     0.0000    48.0000 </r>
       <r>     2.3951     0.0000    48.0000 </r>
       <r>     2.4757     0.0000    48.0000 </r>
       <r>     2.5564     0.0000    48.0000 </r>
      </set>
     </set>
    </array>
   </total>
  </dos>
 </calculation>
 <structure name="finalpos" >
  <crystal>
   <varray name="basis" >
    <v>      10.58354422       0.00000000       0.00000000 </v>
    <v>       0.00000000      10.58354422       0.00000000 </v>
    <v>       0.00000000       0.00000000      10.58354422 </v>
   </varray>
   <i name="volume">   1185.47769178 </i>
   <varray name="rec_basis" >
    <v>       0.09448631       0.00000000       0.00000000 </v>
    <v>       0.00000000       0.09448631       0.00000000 </v>
    <v>       0.00000000       0.00000000       0.09448631 </v>
   </varray>
  </crystal>
  <varray name="positions" >
   <v>       0.50423630       0.63147325       0.50024415 </v>
   <v>       0.38221850       0.56907715       0.50841060 </v>
   <v>       0.38282565       0.43639285       0.49967385 </v>
   <v>       0.49587615       0.36622005       0.50011960 </v>
   <v>       0.61576170       0.43604910       0.50554815 </v>
   <v>       0.61814275       0.56840185       0.49735440 </v>
   <v>       0.49583965       0.72700190       0.50102085 </v>
   <v>       0.29537535       0.61942275       0.50815230 </v>
   <v>       0.29426735       0.37971260       0.48338525 </v>
   <v>       0.49821365       0.26366490       0.50170520 </v>
   <v>       0.70957555       0.38637580       0.50909130 </v>
   <v>       0.70766735       0.61620765       0.48529445 </v>
  </varray>
 </structure>
</modeling>
