<?xml version="1.0" encoding="ISO-8859-1"?>
<modeling>
 <generator>
  <i name="program" type="string">vasp </i>
  <i name="version" type="string">6.2.0  </i>
  <i name="subversion" type="string">18Jan21 (build Mar 25 2021 14:28:09) complex                          parallel </i>
  <i name="platform" type="string">LinuxGNU </i>
  <i name="date" type="string">2022 08 19 </i>
  <i name="time" type="string">07:15:50 </i>
 </generator>
 <incar>
  <i type="string" name="SYSTEM">al</i>
  <i type="int" name="ISTART">     0</i>
  <i type="string" name="PREC">Accurate</i>
  <i type="string" name="ALGO">Normal</i>
  <i type="int" name="NSIM">     8</i>
  <i type="int" name="NELM">   200</i>
  <i type="int" name="IBRION">    -1</i>
  <i name="EDIFF">      0.00000100</i>
  <i type="int" name="NSW">     0</i>
  <i name="ENCUT">    600.00000000</i>
  <i type="string" name="LREAL">Auto</i>
  <i type="int" name="ISMEAR">     0</i>
  <i name="SIGMA">      0.05000000</i>
  <i type="int" name="LMAXPAW">    -1</i>
  <i type="logical" name="LWAVE"> F  </i>
  <i type="logical" name="LCHARG"> T  </i>
  <i type="string" name="GGA">PE</i>
 </incar>
 <primitive_cell>
  <structure name="primitive_cell" >
   <crystal>
    <varray name="basis" >
     <v>       8.07809510       0.00000000       0.00000000 </v>
     <v>       0.00000000       8.07809510       0.00000000 </v>
     <v>       0.00000000       0.00000000       8.07809510 </v>
    </varray>
    <i name="volume">    527.14110776 </i>
    <varray name="rec_basis" >
     <v>       0.12379156       0.00000000       0.00000000 </v>
     <v>       0.00000000       0.12379156       0.00000000 </v>
     <v>       0.00000000       0.00000000       0.12379156 </v>
    </varray>
   </crystal>
   <varray name="positions" >
    <v>       0.98588962       0.99093003       0.99445209 </v>
    <v>       0.99918943       0.25669482       0.25901302 </v>
    <v>       0.23490487       0.00187551       0.23663742 </v>
    <v>       0.23755520       0.25017208       0.99511829 </v>
    <v>       0.99473468       0.99537668       0.49773862 </v>
    <v>       0.01700319       0.25276165       0.73602379 </v>
    <v>       0.23440058       0.00068822       0.74248338 </v>
    <v>       0.27664895       0.22858355       0.48921912 </v>
    <v>       0.00012115       0.50628885       0.00192916 </v>
    <v>       0.02050125       0.73234079       0.26695160 </v>
    <v>       0.25662359       0.48914093       0.24935130 </v>
    <v>       0.24358378       0.75040747       0.98629922 </v>
    <v>       0.01643190       0.51359946       0.51660052 </v>
    <v>       0.98879043       0.75815039       0.75634485 </v>
    <v>       0.25006333       0.50515051       0.75994041 </v>
    <v>       0.25613991       0.75692448       0.48849563 </v>
    <v>       0.49667808       0.01583187       0.99710339 </v>
    <v>       0.49960933       0.24836594       0.24790321 </v>
    <v>       0.77686105       0.99924045       0.25117638 </v>
    <v>       0.75864505       0.25350470       0.98850618 </v>
    <v>       0.50708865       0.98394608       0.51229137 </v>
    <v>       0.49480282       0.24551833       0.74732431 </v>
    <v>       0.72968101       0.00377742       0.75377964 </v>
    <v>       0.73497129       0.25766878       0.51085182 </v>
    <v>       0.49985365       0.48680231       0.98818800 </v>
    <v>       0.50556395       0.75258882       0.24715070 </v>
    <v>       0.73252269       0.48390082       0.22888392 </v>
    <v>       0.73515435       0.73838909       0.99605835 </v>
    <v>       0.51115179       0.51948830       0.48584222 </v>
    <v>       0.48871719       0.75159436       0.74862725 </v>
    <v>       0.75525764       0.49837084       0.73531818 </v>
    <v>       0.75147566       0.73929853       0.49379861 </v>
   </varray>
  </structure>
  <varray name="primitive_index" >
   <v type="int" >        1 </v>
   <v type="int" >        2 </v>
   <v type="int" >        3 </v>
   <v type="int" >        4 </v>
   <v type="int" >        5 </v>
   <v type="int" >        6 </v>
   <v type="int" >        7 </v>
   <v type="int" >        8 </v>
   <v type="int" >        9 </v>
   <v type="int" >       10 </v>
   <v type="int" >       11 </v>
   <v type="int" >       12 </v>
   <v type="int" >       13 </v>
   <v type="int" >       14 </v>
   <v type="int" >       15 </v>
   <v type="int" >       16 </v>
   <v type="int" >       17 </v>
   <v type="int" >       18 </v>
   <v type="int" >       19 </v>
   <v type="int" >       20 </v>
   <v type="int" >       21 </v>
   <v type="int" >       22 </v>
   <v type="int" >       23 </v>
   <v type="int" >       24 </v>
   <v type="int" >       25 </v>
   <v type="int" >       26 </v>
   <v type="int" >       27 </v>
   <v type="int" >       28 </v>
   <v type="int" >       29 </v>
   <v type="int" >       30 </v>
   <v type="int" >       31 </v>
   <v type="int" >       32 </v>
  </varray>
 </primitive_cell>
 <kpoints>
  <generation param="Gamma">
   <v type="int" name="divisions">       9        9        9 </v>
   <v name="usershift">      0.00000000       0.00000000       0.00000000 </v>
   <v name="genvec1">      0.11111111       0.00000000       0.00000000 </v>
   <v name="genvec2">      0.00000000       0.11111111       0.00000000 </v>
   <v name="genvec3">      0.00000000       0.00000000       0.11111111 </v>
   <v name="shift">      0.00000000       0.00000000       0.00000000 </v>
  </generation>
  <varray name="kpointlist" >
   <v>       0.00000000       0.00000000       0.00000000 </v>
   <v>       0.11111111       0.00000000       0.00000000 </v>
   <v>       0.00000000       0.11111111       0.00000000 </v>
   <v>       0.00000000       0.00000000       0.11111111 </v>
   <v>       0.22222222       0.00000000       0.00000000 </v>
   <v>       0.00000000       0.22222222       0.00000000 </v>
   <v>       0.00000000       0.00000000       0.22222222 </v>
   <v>       0.33333333       0.00000000       0.00000000 </v>
   <v>       0.00000000       0.33333333       0.00000000 </v>
   <v>       0.00000000       0.00000000       0.33333333 </v>
   <v>       0.44444444       0.00000000       0.00000000 </v>
   <v>       0.00000000       0.44444444       0.00000000 </v>
   <v>       0.00000000       0.00000000       0.44444444 </v>
   <v>       0.11111111       0.11111111       0.00000000 </v>
   <v>       0.00000000       0.11111111       0.11111111 </v>
   <v>       0.11111111       0.00000000       0.11111111 </v>
   <v>      -0.11111111       0.11111111       0.00000000 </v>
   <v>      -0.11111111       0.00000000       0.11111111 </v>
   <v>       0.00000000      -0.11111111       0.11111111 </v>
   <v>       0.22222222       0.11111111       0.00000000 </v>
   <v>       0.00000000       0.22222222       0.11111111 </v>
   <v>       0.11111111       0.00000000       0.22222222 </v>
   <v>      -0.11111111       0.22222222       0.00000000 </v>
   <v>      -0.22222222       0.00000000       0.11111111 </v>
   <v>       0.00000000       0.11111111       0.22222222 </v>
   <v>       0.00000000      -0.22222222       0.11111111 </v>
   <v>      -0.11111111       0.00000000       0.22222222 </v>
   <v>       0.22222222       0.00000000       0.11111111 </v>
   <v>       0.00000000      -0.11111111       0.22222222 </v>
   <v>       0.22222222      -0.11111111       0.00000000 </v>
   <v>       0.11111111       0.22222222       0.00000000 </v>
   <v>       0.33333333       0.11111111       0.00000000 </v>
   <v>       0.00000000       0.33333333       0.11111111 </v>
   <v>       0.11111111       0.00000000       0.33333333 </v>
   <v>      -0.11111111       0.33333333       0.00000000 </v>
   <v>      -0.33333333       0.00000000       0.11111111 </v>
   <v>       0.00000000       0.11111111       0.33333333 </v>
   <v>       0.00000000      -0.33333333       0.11111111 </v>
   <v>      -0.11111111       0.00000000       0.33333333 </v>
   <v>       0.33333333       0.00000000       0.11111111 </v>
   <v>       0.00000000      -0.11111111       0.33333333 </v>
   <v>       0.33333333      -0.11111111       0.00000000 </v>
   <v>       0.11111111       0.33333333       0.00000000 </v>
   <v>       0.44444444       0.11111111       0.00000000 </v>
   <v>       0.00000000       0.44444444       0.11111111 </v>
   <v>       0.11111111       0.00000000       0.44444444 </v>
   <v>      -0.11111111       0.44444444       0.00000000 </v>
   <v>      -0.44444444       0.00000000       0.11111111 </v>
   <v>       0.00000000       0.11111111       0.44444444 </v>
   <v>       0.00000000      -0.44444444       0.11111111 </v>
   <v>      -0.11111111       0.00000000       0.44444444 </v>
   <v>       0.44444444       0.00000000       0.11111111 </v>
   <v>       0.00000000      -0.11111111       0.44444444 </v>
   <v>       0.44444444      -0.11111111       0.00000000 </v>
   <v>       0.11111111       0.44444444       0.00000000 </v>
   <v>       0.22222222       0.22222222       0.00000000 </v>
   <v>       0.00000000       0.22222222       0.22222222 </v>
   <v>       0.22222222       0.00000000       0.22222222 </v>
   <v>      -0.22222222       0.22222222       0.00000000 </v>
   <v>      -0.22222222       0.00000000       0.22222222 </v>
   <v>       0.00000000      -0.22222222       0.22222222 </v>
   <v>       0.33333333       0.22222222       0.00000000 </v>
   <v>       0.00000000       0.33333333       0.22222222 </v>
   <v>       0.22222222       0.00000000       0.33333333 </v>
   <v>      -0.22222222       0.33333333       0.00000000 </v>
   <v>      -0.33333333       0.00000000       0.22222222 </v>
   <v>       0.00000000       0.22222222       0.33333333 </v>
   <v>       0.00000000      -0.33333333       0.22222222 </v>
   <v>      -0.22222222       0.00000000       0.33333333 </v>
   <v>       0.33333333       0.00000000       0.22222222 </v>
   <v>       0.00000000      -0.22222222       0.33333333 </v>
   <v>       0.33333333      -0.22222222       0.00000000 </v>
   <v>       0.22222222       0.33333333       0.00000000 </v>
   <v>       0.44444444       0.22222222       0.00000000 </v>
   <v>       0.00000000       0.44444444       0.22222222 </v>
   <v>       0.22222222       0.00000000       0.44444444 </v>
   <v>      -0.22222222       0.44444444       0.00000000 </v>
   <v>      -0.44444444       0.00000000       0.22222222 </v>
   <v>       0.00000000       0.22222222       0.44444444 </v>
   <v>       0.00000000      -0.44444444       0.22222222 </v>
   <v>      -0.22222222       0.00000000       0.44444444 </v>
   <v>       0.44444444       0.00000000       0.22222222 </v>
   <v>       0.00000000      -0.22222222       0.44444444 </v>
   <v>       0.44444444      -0.22222222       0.00000000 </v>
   <v>       0.22222222       0.44444444       0.00000000 </v>
   <v>       0.33333333       0.33333333       0.00000000 </v>
   <v>       0.00000000       0.33333333       0.33333333 </v>
   <v>       0.33333333       0.00000000       0.33333333 </v>
   <v>      -0.33333333       0.33333333       0.00000000 </v>
   <v>      -0.33333333       0.00000000       0.33333333 </v>
   <v>       0.00000000      -0.33333333       0.33333333 </v>
   <v>       0.44444444       0.33333333       0.00000000 </v>
   <v>       0.00000000       0.44444444       0.33333333 </v>
   <v>       0.33333333       0.00000000       0.44444444 </v>
   <v>      -0.33333333       0.44444444       0.00000000 </v>
   <v>      -0.44444444       0.00000000       0.33333333 </v>
   <v>       0.00000000       0.33333333       0.44444444 </v>
   <v>       0.00000000      -0.44444444       0.33333333 </v>
   <v>      -0.33333333       0.00000000       0.44444444 </v>
   <v>       0.44444444       0.00000000       0.33333333 </v>
   <v>       0.00000000      -0.33333333       0.44444444 </v>
   <v>       0.44444444      -0.33333333       0.00000000 </v>
   <v>       0.33333333       0.44444444       0.00000000 </v>
   <v>       0.44444444       0.44444444       0.00000000 </v>
   <v>       0.00000000       0.44444444       0.44444444 </v>
   <v>       0.44444444       0.00000000       0.44444444 </v>
   <v>      -0.44444444       0.44444444       0.00000000 </v>
   <v>      -0.44444444       0.00000000       0.44444444 </v>
   <v>       0.00000000      -0.44444444       0.44444444 </v>
   <v>       0.11111111       0.11111111       0.11111111 </v>
   <v>      -0.11111111       0.11111111       0.11111111 </v>
   <v>      -0.11111111      -0.11111111       0.11111111 </v>
   <v>       0.11111111      -0.11111111       0.11111111 </v>
   <v>       0.22222222       0.11111111       0.11111111 </v>
   <v>       0.11111111       0.22222222       0.11111111 </v>
   <v>       0.11111111       0.11111111       0.22222222 </v>
   <v>      -0.11111111       0.22222222       0.11111111 </v>
   <v>      -0.22222222       0.11111111       0.11111111 </v>
   <v>      -0.11111111       0.11111111       0.22222222 </v>
   <v>      -0.22222222      -0.11111111       0.11111111 </v>
   <v>      -0.11111111      -0.22222222       0.11111111 </v>
   <v>      -0.11111111      -0.11111111       0.22222222 </v>
   <v>       0.11111111      -0.22222222       0.11111111 </v>
   <v>       0.22222222      -0.11111111       0.11111111 </v>
   <v>       0.11111111      -0.11111111       0.22222222 </v>
   <v>       0.33333333       0.11111111       0.11111111 </v>
   <v>       0.11111111       0.33333333       0.11111111 </v>
   <v>       0.11111111       0.11111111       0.33333333 </v>
   <v>      -0.11111111       0.33333333       0.11111111 </v>
   <v>      -0.33333333       0.11111111       0.11111111 </v>
   <v>      -0.11111111       0.11111111       0.33333333 </v>
   <v>      -0.33333333      -0.11111111       0.11111111 </v>
   <v>      -0.11111111      -0.33333333       0.11111111 </v>
   <v>      -0.11111111      -0.11111111       0.33333333 </v>
   <v>       0.11111111      -0.33333333       0.11111111 </v>
   <v>       0.33333333      -0.11111111       0.11111111 </v>
   <v>       0.11111111      -0.11111111       0.33333333 </v>
   <v>       0.44444444       0.11111111       0.11111111 </v>
   <v>       0.11111111       0.44444444       0.11111111 </v>
   <v>       0.11111111       0.11111111       0.44444444 </v>
   <v>      -0.11111111       0.44444444       0.11111111 </v>
   <v>      -0.44444444       0.11111111       0.11111111 </v>
   <v>      -0.11111111       0.11111111       0.44444444 </v>
   <v>      -0.44444444      -0.11111111       0.11111111 </v>
   <v>      -0.11111111      -0.44444444       0.11111111 </v>
   <v>      -0.11111111      -0.11111111       0.44444444 </v>
   <v>       0.11111111      -0.44444444       0.11111111 </v>
   <v>       0.44444444      -0.11111111       0.11111111 </v>
   <v>       0.11111111      -0.11111111       0.44444444 </v>
   <v>       0.22222222       0.22222222       0.11111111 </v>
   <v>       0.11111111       0.22222222       0.22222222 </v>
   <v>       0.22222222       0.11111111       0.22222222 </v>
   <v>      -0.22222222       0.22222222       0.11111111 </v>
   <v>      -0.22222222       0.11111111       0.22222222 </v>
   <v>      -0.11111111       0.22222222       0.22222222 </v>
   <v>      -0.22222222      -0.22222222       0.11111111 </v>
   <v>      -0.11111111      -0.22222222       0.22222222 </v>
   <v>      -0.22222222      -0.11111111       0.22222222 </v>
   <v>       0.22222222      -0.22222222       0.11111111 </v>
   <v>       0.22222222      -0.11111111       0.22222222 </v>
   <v>       0.11111111      -0.22222222       0.22222222 </v>
   <v>       0.33333333       0.22222222       0.11111111 </v>
   <v>       0.11111111       0.33333333       0.22222222 </v>
   <v>       0.22222222       0.11111111       0.33333333 </v>
   <v>      -0.22222222       0.33333333       0.11111111 </v>
   <v>      -0.33333333       0.11111111       0.22222222 </v>
   <v>      -0.11111111       0.22222222       0.33333333 </v>
   <v>      -0.33333333      -0.22222222       0.11111111 </v>
   <v>      -0.11111111      -0.33333333       0.22222222 </v>
   <v>      -0.22222222      -0.11111111       0.33333333 </v>
   <v>       0.22222222      -0.33333333       0.11111111 </v>
   <v>       0.33333333      -0.11111111       0.22222222 </v>
   <v>       0.11111111      -0.22222222       0.33333333 </v>
   <v>       0.11111111      -0.33333333      -0.22222222 </v>
   <v>       0.22222222      -0.11111111      -0.33333333 </v>
   <v>       0.33333333      -0.22222222      -0.11111111 </v>
   <v>       0.11111111       0.22222222      -0.33333333 </v>
   <v>       0.22222222       0.33333333      -0.11111111 </v>
   <v>       0.33333333       0.11111111      -0.22222222 </v>
   <v>      -0.22222222       0.11111111      -0.33333333 </v>
   <v>      -0.33333333       0.22222222      -0.11111111 </v>
   <v>      -0.11111111       0.33333333      -0.22222222 </v>
   <v>      -0.33333333      -0.11111111      -0.22222222 </v>
   <v>      -0.22222222      -0.33333333      -0.11111111 </v>
   <v>      -0.11111111      -0.22222222      -0.33333333 </v>
   <v>       0.44444444       0.22222222       0.11111111 </v>
   <v>       0.11111111       0.44444444       0.22222222 </v>
   <v>       0.22222222       0.11111111       0.44444444 </v>
   <v>      -0.22222222       0.44444444       0.11111111 </v>
   <v>      -0.44444444       0.11111111       0.22222222 </v>
   <v>      -0.11111111       0.22222222       0.44444444 </v>
   <v>      -0.44444444      -0.22222222       0.11111111 </v>
   <v>      -0.11111111      -0.44444444       0.22222222 </v>
   <v>      -0.22222222      -0.11111111       0.44444444 </v>
   <v>       0.22222222      -0.44444444       0.11111111 </v>
   <v>       0.44444444      -0.11111111       0.22222222 </v>
   <v>       0.11111111      -0.22222222       0.44444444 </v>
   <v>       0.11111111      -0.44444444      -0.22222222 </v>
   <v>       0.22222222      -0.11111111      -0.44444444 </v>
   <v>       0.44444444      -0.22222222      -0.11111111 </v>
   <v>       0.11111111       0.22222222      -0.44444444 </v>
   <v>       0.22222222       0.44444444      -0.11111111 </v>
   <v>       0.44444444       0.11111111      -0.22222222 </v>
   <v>      -0.22222222       0.11111111      -0.44444444 </v>
   <v>      -0.44444444       0.22222222      -0.11111111 </v>
   <v>      -0.11111111       0.44444444      -0.22222222 </v>
   <v>      -0.44444444      -0.11111111      -0.22222222 </v>
   <v>      -0.22222222      -0.44444444      -0.11111111 </v>
   <v>      -0.11111111      -0.22222222      -0.44444444 </v>
   <v>       0.33333333       0.33333333       0.11111111 </v>
   <v>       0.11111111       0.33333333       0.33333333 </v>
   <v>       0.33333333       0.11111111       0.33333333 </v>
   <v>      -0.33333333       0.33333333       0.11111111 </v>
   <v>      -0.33333333       0.11111111       0.33333333 </v>
   <v>      -0.11111111       0.33333333       0.33333333 </v>
   <v>      -0.33333333      -0.33333333       0.11111111 </v>
   <v>      -0.11111111      -0.33333333       0.33333333 </v>
   <v>      -0.33333333      -0.11111111       0.33333333 </v>
   <v>       0.33333333      -0.33333333       0.11111111 </v>
   <v>       0.33333333      -0.11111111       0.33333333 </v>
   <v>       0.11111111      -0.33333333       0.33333333 </v>
   <v>       0.44444444       0.33333333       0.11111111 </v>
   <v>       0.11111111       0.44444444       0.33333333 </v>
   <v>       0.33333333       0.11111111       0.44444444 </v>
   <v>      -0.33333333       0.44444444       0.11111111 </v>
   <v>      -0.44444444       0.11111111       0.33333333 </v>
   <v>      -0.11111111       0.33333333       0.44444444 </v>
   <v>      -0.44444444      -0.33333333       0.11111111 </v>
   <v>      -0.11111111      -0.44444444       0.33333333 </v>
   <v>      -0.33333333      -0.11111111       0.44444444 </v>
   <v>       0.33333333      -0.44444444       0.11111111 </v>
   <v>       0.44444444      -0.11111111       0.33333333 </v>
   <v>       0.11111111      -0.33333333       0.44444444 </v>
   <v>       0.11111111      -0.44444444      -0.33333333 </v>
   <v>       0.33333333      -0.11111111      -0.44444444 </v>
   <v>       0.44444444      -0.33333333      -0.11111111 </v>
   <v>       0.11111111       0.33333333      -0.44444444 </v>
   <v>       0.33333333       0.44444444      -0.11111111 </v>
   <v>       0.44444444       0.11111111      -0.33333333 </v>
   <v>      -0.33333333       0.11111111      -0.44444444 </v>
   <v>      -0.44444444       0.33333333      -0.11111111 </v>
   <v>      -0.11111111       0.44444444      -0.33333333 </v>
   <v>      -0.44444444      -0.11111111      -0.33333333 </v>
   <v>      -0.33333333      -0.44444444      -0.11111111 </v>
   <v>      -0.11111111      -0.33333333      -0.44444444 </v>
   <v>       0.44444444       0.44444444       0.11111111 </v>
   <v>       0.11111111       0.44444444       0.44444444 </v>
   <v>       0.44444444       0.11111111       0.44444444 </v>
   <v>      -0.44444444       0.44444444       0.11111111 </v>
   <v>      -0.44444444       0.11111111       0.44444444 </v>
   <v>      -0.11111111       0.44444444       0.44444444 </v>
   <v>      -0.44444444      -0.44444444       0.11111111 </v>
   <v>      -0.11111111      -0.44444444       0.44444444 </v>
   <v>      -0.44444444      -0.11111111       0.44444444 </v>
   <v>       0.44444444      -0.44444444       0.11111111 </v>
   <v>       0.44444444      -0.11111111       0.44444444 </v>
   <v>       0.11111111      -0.44444444       0.44444444 </v>
   <v>       0.22222222       0.22222222       0.22222222 </v>
   <v>      -0.22222222       0.22222222       0.22222222 </v>
   <v>      -0.22222222      -0.22222222       0.22222222 </v>
   <v>       0.22222222      -0.22222222       0.22222222 </v>
   <v>       0.33333333       0.22222222       0.22222222 </v>
   <v>       0.22222222       0.33333333       0.22222222 </v>
   <v>       0.22222222       0.22222222       0.33333333 </v>
   <v>      -0.22222222       0.33333333       0.22222222 </v>
   <v>      -0.33333333       0.22222222       0.22222222 </v>
   <v>      -0.22222222       0.22222222       0.33333333 </v>
   <v>      -0.33333333      -0.22222222       0.22222222 </v>
   <v>      -0.22222222      -0.33333333       0.22222222 </v>
   <v>      -0.22222222      -0.22222222       0.33333333 </v>
   <v>       0.22222222      -0.33333333       0.22222222 </v>
   <v>       0.33333333      -0.22222222       0.22222222 </v>
   <v>       0.22222222      -0.22222222       0.33333333 </v>
   <v>       0.44444444       0.22222222       0.22222222 </v>
   <v>       0.22222222       0.44444444       0.22222222 </v>
   <v>       0.22222222       0.22222222       0.44444444 </v>
   <v>      -0.22222222       0.44444444       0.22222222 </v>
   <v>      -0.44444444       0.22222222       0.22222222 </v>
   <v>      -0.22222222       0.22222222       0.44444444 </v>
   <v>      -0.44444444      -0.22222222       0.22222222 </v>
   <v>      -0.22222222      -0.44444444       0.22222222 </v>
   <v>      -0.22222222      -0.22222222       0.44444444 </v>
   <v>       0.22222222      -0.44444444       0.22222222 </v>
   <v>       0.44444444      -0.22222222       0.22222222 </v>
   <v>       0.22222222      -0.22222222       0.44444444 </v>
   <v>       0.33333333       0.33333333       0.22222222 </v>
   <v>       0.22222222       0.33333333       0.33333333 </v>
   <v>       0.33333333       0.22222222       0.33333333 </v>
   <v>      -0.33333333       0.33333333       0.22222222 </v>
   <v>      -0.33333333       0.22222222       0.33333333 </v>
   <v>      -0.22222222       0.33333333       0.33333333 </v>
   <v>      -0.33333333      -0.33333333       0.22222222 </v>
   <v>      -0.22222222      -0.33333333       0.33333333 </v>
   <v>      -0.33333333      -0.22222222       0.33333333 </v>
   <v>       0.33333333      -0.33333333       0.22222222 </v>
   <v>       0.33333333      -0.22222222       0.33333333 </v>
   <v>       0.22222222      -0.33333333       0.33333333 </v>
   <v>       0.44444444       0.33333333       0.22222222 </v>
   <v>       0.22222222       0.44444444       0.33333333 </v>
   <v>       0.33333333       0.22222222       0.44444444 </v>
   <v>      -0.33333333       0.44444444       0.22222222 </v>
   <v>      -0.44444444       0.22222222       0.33333333 </v>
   <v>      -0.22222222       0.33333333       0.44444444 </v>
   <v>      -0.44444444      -0.33333333       0.22222222 </v>
   <v>      -0.22222222      -0.44444444       0.33333333 </v>
   <v>      -0.33333333      -0.22222222       0.44444444 </v>
   <v>       0.33333333      -0.44444444       0.22222222 </v>
   <v>       0.44444444      -0.22222222       0.33333333 </v>
   <v>       0.22222222      -0.33333333       0.44444444 </v>
   <v>       0.22222222      -0.44444444      -0.33333333 </v>
   <v>       0.33333333      -0.22222222      -0.44444444 </v>
   <v>       0.44444444      -0.33333333      -0.22222222 </v>
   <v>       0.22222222       0.33333333      -0.44444444 </v>
   <v>       0.33333333       0.44444444      -0.22222222 </v>
   <v>       0.44444444       0.22222222      -0.33333333 </v>
   <v>      -0.33333333       0.22222222      -0.44444444 </v>
   <v>      -0.44444444       0.33333333      -0.22222222 </v>
   <v>      -0.22222222       0.44444444      -0.33333333 </v>
   <v>      -0.44444444      -0.22222222      -0.33333333 </v>
   <v>      -0.33333333      -0.44444444      -0.22222222 </v>
   <v>      -0.22222222      -0.33333333      -0.44444444 </v>
   <v>       0.44444444       0.44444444       0.22222222 </v>
   <v>       0.22222222       0.44444444       0.44444444 </v>
   <v>       0.44444444       0.22222222       0.44444444 </v>
   <v>      -0.44444444       0.44444444       0.22222222 </v>
   <v>      -0.44444444       0.22222222       0.44444444 </v>
   <v>      -0.22222222       0.44444444       0.44444444 </v>
   <v>      -0.44444444      -0.44444444       0.22222222 </v>
   <v>      -0.22222222      -0.44444444       0.44444444 </v>
   <v>      -0.44444444      -0.22222222       0.44444444 </v>
   <v>       0.44444444      -0.44444444       0.22222222 </v>
   <v>       0.44444444      -0.22222222       0.44444444 </v>
   <v>       0.22222222      -0.44444444       0.44444444 </v>
   <v>       0.33333333       0.33333333       0.33333333 </v>
   <v>      -0.33333333       0.33333333       0.33333333 </v>
   <v>      -0.33333333      -0.33333333       0.33333333 </v>
   <v>       0.33333333      -0.33333333       0.33333333 </v>
   <v>       0.44444444       0.33333333       0.33333333 </v>
   <v>       0.33333333       0.44444444       0.33333333 </v>
   <v>       0.33333333       0.33333333       0.44444444 </v>
   <v>      -0.33333333       0.44444444       0.33333333 </v>
   <v>      -0.44444444       0.33333333       0.33333333 </v>
   <v>      -0.33333333       0.33333333       0.44444444 </v>
   <v>      -0.44444444      -0.33333333       0.33333333 </v>
   <v>      -0.33333333      -0.44444444       0.33333333 </v>
   <v>      -0.33333333      -0.33333333       0.44444444 </v>
   <v>       0.33333333      -0.44444444       0.33333333 </v>
   <v>       0.44444444      -0.33333333       0.33333333 </v>
   <v>       0.33333333      -0.33333333       0.44444444 </v>
   <v>       0.44444444       0.44444444       0.33333333 </v>
   <v>       0.33333333       0.44444444       0.44444444 </v>
   <v>       0.44444444       0.33333333       0.44444444 </v>
   <v>      -0.44444444       0.44444444       0.33333333 </v>
   <v>      -0.44444444       0.33333333       0.44444444 </v>
   <v>      -0.33333333       0.44444444       0.44444444 </v>
   <v>      -0.44444444      -0.44444444       0.33333333 </v>
   <v>      -0.33333333      -0.44444444       0.44444444 </v>
   <v>      -0.44444444      -0.33333333       0.44444444 </v>
   <v>       0.44444444      -0.44444444       0.33333333 </v>
   <v>       0.44444444      -0.33333333       0.44444444 </v>
   <v>       0.33333333      -0.44444444       0.44444444 </v>
   <v>       0.44444444       0.44444444       0.44444444 </v>
   <v>      -0.44444444       0.44444444       0.44444444 </v>
   <v>      -0.44444444      -0.44444444       0.44444444 </v>
   <v>       0.44444444      -0.44444444       0.44444444 </v>
  </varray>
  <varray name="weights" >
   <v>       0.00137174 </v>
   <v>       0.00274348 </v>
   <v>       0.00274348 </v>
   <v>       0.00274348 </v>
   <v>       0.00274348 </v>
   <v>       0.00274348 </v>
   <v>       0.00274348 </v>
   <v>       0.00274348 </v>
   <v>       0.00274348 </v>
   <v>       0.00274348 </v>
   <v>       0.00274348 </v>
   <v>       0.00274348 </v>
   <v>       0.00274348 </v>
   <v>       0.00274348 </v>
   <v>       0.00274348 </v>
   <v>       0.00274348 </v>
   <v>       0.00274348 </v>
   <v>       0.00274348 </v>
   <v>       0.00274348 </v>
   <v>       0.00274348 </v>
   <v>       0.00274348 </v>
   <v>       0.00274348 </v>
   <v>       0.00274348 </v>
   <v>       0.00274348 </v>
   <v>       0.00274348 </v>
   <v>       0.00274348 </v>
   <v>       0.00274348 </v>
   <v>       0.00274348 </v>
   <v>       0.00274348 </v>
   <v>       0.00274348 </v>
   <v>       0.00274348 </v>
   <v>       0.00274348 </v>
   <v>       0.00274348 </v>
   <v>       0.00274348 </v>
   <v>       0.00274348 </v>
   <v>       0.00274348 </v>
   <v>       0.00274348 </v>
   <v>       0.00274348 </v>
   <v>       0.00274348 </v>
   <v>       0.00274348 </v>
   <v>       0.00274348 </v>
   <v>       0.00274348 </v>
   <v>       0.00274348 </v>
   <v>       0.00274348 </v>
   <v>       0.00274348 </v>
   <v>       0.00274348 </v>
   <v>       0.00274348 </v>
   <v>       0.00274348 </v>
   <v>       0.00274348 </v>
   <v>       0.00274348 </v>
   <v>       0.00274348 </v>
   <v>       0.00274348 </v>
   <v>       0.00274348 </v>
   <v>       0.00274348 </v>
   <v>       0.00274348 </v>
   <v>       0.00274348 </v>
   <v>       0.00274348 </v>
   <v>       0.00274348 </v>
   <v>       0.00274348 </v>
   <v>       0.00274348 </v>
   <v>       0.00274348 </v>
   <v>       0.00274348 </v>
   <v>       0.00274348 </v>
   <v>       0.00274348 </v>
   <v>       0.00274348 </v>
   <v>       0.00274348 </v>
   <v>       0.00274348 </v>
   <v>       0.00274348 </v>
   <v>       0.00274348 </v>
   <v>       0.00274348 </v>
   <v>       0.00274348 </v>
   <v>       0.00274348 </v>
   <v>       0.00274348 </v>
   <v>       0.00274348 </v>
   <v>       0.00274348 </v>
   <v>       0.00274348 </v>
   <v>       0.00274348 </v>
   <v>       0.00274348 </v>
   <v>       0.00274348 </v>
   <v>       0.00274348 </v>
   <v>       0.00274348 </v>
   <v>       0.00274348 </v>
   <v>       0.00274348 </v>
   <v>       0.00274348 </v>
   <v>       0.00274348 </v>
   <v>       0.00274348 </v>
   <v>       0.00274348 </v>
   <v>       0.00274348 </v>
   <v>       0.00274348 </v>
   <v>       0.00274348 </v>
   <v>       0.00274348 </v>
   <v>       0.00274348 </v>
   <v>       0.00274348 </v>
   <v>       0.00274348 </v>
   <v>       0.00274348 </v>
   <v>       0.00274348 </v>
   <v>       0.00274348 </v>
   <v>       0.00274348 </v>
   <v>       0.00274348 </v>
   <v>       0.00274348 </v>
   <v>       0.00274348 </v>
   <v>       0.00274348 </v>
   <v>       0.00274348 </v>
   <v>       0.00274348 </v>
   <v>       0.00274348 </v>
   <v>       0.00274348 </v>
   <v>       0.00274348 </v>
   <v>       0.00274348 </v>
   <v>       0.00274348 </v>
   <v>       0.00274348 </v>
   <v>       0.00274348 </v>
   <v>       0.00274348 </v>
   <v>       0.00274348 </v>
   <v>       0.00274348 </v>
   <v>       0.00274348 </v>
   <v>       0.00274348 </v>
   <v>       0.00274348 </v>
   <v>       0.00274348 </v>
   <v>       0.00274348 </v>
   <v>       0.00274348 </v>
   <v>       0.00274348 </v>
   <v>       0.00274348 </v>
   <v>       0.00274348 </v>
   <v>       0.00274348 </v>
   <v>       0.00274348 </v>
   <v>       0.00274348 </v>
   <v>       0.00274348 </v>
   <v>       0.00274348 </v>
   <v>       0.00274348 </v>
   <v>       0.00274348 </v>
   <v>       0.00274348 </v>
   <v>       0.00274348 </v>
   <v>       0.00274348 </v>
   <v>       0.00274348 </v>
   <v>       0.00274348 </v>
   <v>       0.00274348 </v>
   <v>       0.00274348 </v>
   <v>       0.00274348 </v>
   <v>       0.00274348 </v>
   <v>       0.00274348 </v>
   <v>       0.00274348 </v>
   <v>       0.00274348 </v>
   <v>       0.00274348 </v>
   <v>       0.00274348 </v>
   <v>       0.00274348 </v>
   <v>       0.00274348 </v>
   <v>       0.00274348 </v>
   <v>       0.00274348 </v>
   <v>       0.00274348 </v>
   <v>       0.00274348 </v>
   <v>       0.00274348 </v>
   <v>       0.00274348 </v>
   <v>       0.00274348 </v>
   <v>       0.00274348 </v>
   <v>       0.00274348 </v>
   <v>       0.00274348 </v>
   <v>       0.00274348 </v>
   <v>       0.00274348 </v>
   <v>       0.00274348 </v>
   <v>       0.00274348 </v>
   <v>       0.00274348 </v>
   <v>       0.00274348 </v>
   <v>       0.00274348 </v>
   <v>       0.00274348 </v>
   <v>       0.00274348 </v>
   <v>       0.00274348 </v>
   <v>       0.00274348 </v>
   <v>       0.00274348 </v>
   <v>       0.00274348 </v>
   <v>       0.00274348 </v>
   <v>       0.00274348 </v>
   <v>       0.00274348 </v>
   <v>       0.00274348 </v>
   <v>       0.00274348 </v>
   <v>       0.00274348 </v>
   <v>       0.00274348 </v>
   <v>       0.00274348 </v>
   <v>       0.00274348 </v>
   <v>       0.00274348 </v>
   <v>       0.00274348 </v>
   <v>       0.00274348 </v>
   <v>       0.00274348 </v>
   <v>       0.00274348 </v>
   <v>       0.00274348 </v>
   <v>       0.00274348 </v>
   <v>       0.00274348 </v>
   <v>       0.00274348 </v>
   <v>       0.00274348 </v>
   <v>       0.00274348 </v>
   <v>       0.00274348 </v>
   <v>       0.00274348 </v>
   <v>       0.00274348 </v>
   <v>       0.00274348 </v>
   <v>       0.00274348 </v>
   <v>       0.00274348 </v>
   <v>       0.00274348 </v>
   <v>       0.00274348 </v>
   <v>       0.00274348 </v>
   <v>       0.00274348 </v>
   <v>       0.00274348 </v>
   <v>       0.00274348 </v>
   <v>       0.00274348 </v>
   <v>       0.00274348 </v>
   <v>       0.00274348 </v>
   <v>       0.00274348 </v>
   <v>       0.00274348 </v>
   <v>       0.00274348 </v>
   <v>       0.00274348 </v>
   <v>       0.00274348 </v>
   <v>       0.00274348 </v>
   <v>       0.00274348 </v>
   <v>       0.00274348 </v>
   <v>       0.00274348 </v>
   <v>       0.00274348 </v>
   <v>       0.00274348 </v>
   <v>       0.00274348 </v>
   <v>       0.00274348 </v>
   <v>       0.00274348 </v>
   <v>       0.00274348 </v>
   <v>       0.00274348 </v>
   <v>       0.00274348 </v>
   <v>       0.00274348 </v>
   <v>       0.00274348 </v>
   <v>       0.00274348 </v>
   <v>       0.00274348 </v>
   <v>       0.00274348 </v>
   <v>       0.00274348 </v>
   <v>       0.00274348 </v>
   <v>       0.00274348 </v>
   <v>       0.00274348 </v>
   <v>       0.00274348 </v>
   <v>       0.00274348 </v>
   <v>       0.00274348 </v>
   <v>       0.00274348 </v>
   <v>       0.00274348 </v>
   <v>       0.00274348 </v>
   <v>       0.00274348 </v>
   <v>       0.00274348 </v>
   <v>       0.00274348 </v>
   <v>       0.00274348 </v>
   <v>       0.00274348 </v>
   <v>       0.00274348 </v>
   <v>       0.00274348 </v>
   <v>       0.00274348 </v>
   <v>       0.00274348 </v>
   <v>       0.00274348 </v>
   <v>       0.00274348 </v>
   <v>       0.00274348 </v>
   <v>       0.00274348 </v>
   <v>       0.00274348 </v>
   <v>       0.00274348 </v>
   <v>       0.00274348 </v>
   <v>       0.00274348 </v>
   <v>       0.00274348 </v>
   <v>       0.00274348 </v>
   <v>       0.00274348 </v>
   <v>       0.00274348 </v>
   <v>       0.00274348 </v>
   <v>       0.00274348 </v>
   <v>       0.00274348 </v>
   <v>       0.00274348 </v>
   <v>       0.00274348 </v>
   <v>       0.00274348 </v>
   <v>       0.00274348 </v>
   <v>       0.00274348 </v>
   <v>       0.00274348 </v>
   <v>       0.00274348 </v>
   <v>       0.00274348 </v>
   <v>       0.00274348 </v>
   <v>       0.00274348 </v>
   <v>       0.00274348 </v>
   <v>       0.00274348 </v>
   <v>       0.00274348 </v>
   <v>       0.00274348 </v>
   <v>       0.00274348 </v>
   <v>       0.00274348 </v>
   <v>       0.00274348 </v>
   <v>       0.00274348 </v>
   <v>       0.00274348 </v>
   <v>       0.00274348 </v>
   <v>       0.00274348 </v>
   <v>       0.00274348 </v>
   <v>       0.00274348 </v>
   <v>       0.00274348 </v>
   <v>       0.00274348 </v>
   <v>       0.00274348 </v>
   <v>       0.00274348 </v>
   <v>       0.00274348 </v>
   <v>       0.00274348 </v>
   <v>       0.00274348 </v>
   <v>       0.00274348 </v>
   <v>       0.00274348 </v>
   <v>       0.00274348 </v>
   <v>       0.00274348 </v>
   <v>       0.00274348 </v>
   <v>       0.00274348 </v>
   <v>       0.00274348 </v>
   <v>       0.00274348 </v>
   <v>       0.00274348 </v>
   <v>       0.00274348 </v>
   <v>       0.00274348 </v>
   <v>       0.00274348 </v>
   <v>       0.00274348 </v>
   <v>       0.00274348 </v>
   <v>       0.00274348 </v>
   <v>       0.00274348 </v>
   <v>       0.00274348 </v>
   <v>       0.00274348 </v>
   <v>       0.00274348 </v>
   <v>       0.00274348 </v>
   <v>       0.00274348 </v>
   <v>       0.00274348 </v>
   <v>       0.00274348 </v>
   <v>       0.00274348 </v>
   <v>       0.00274348 </v>
   <v>       0.00274348 </v>
   <v>       0.00274348 </v>
   <v>       0.00274348 </v>
   <v>       0.00274348 </v>
   <v>       0.00274348 </v>
   <v>       0.00274348 </v>
   <v>       0.00274348 </v>
   <v>       0.00274348 </v>
   <v>       0.00274348 </v>
   <v>       0.00274348 </v>
   <v>       0.00274348 </v>
   <v>       0.00274348 </v>
   <v>       0.00274348 </v>
   <v>       0.00274348 </v>
   <v>       0.00274348 </v>
   <v>       0.00274348 </v>
   <v>       0.00274348 </v>
   <v>       0.00274348 </v>
   <v>       0.00274348 </v>
   <v>       0.00274348 </v>
   <v>       0.00274348 </v>
   <v>       0.00274348 </v>
   <v>       0.00274348 </v>
   <v>       0.00274348 </v>
   <v>       0.00274348 </v>
   <v>       0.00274348 </v>
   <v>       0.00274348 </v>
   <v>       0.00274348 </v>
   <v>       0.00274348 </v>
   <v>       0.00274348 </v>
   <v>       0.00274348 </v>
   <v>       0.00274348 </v>
   <v>       0.00274348 </v>
   <v>       0.00274348 </v>
   <v>       0.00274348 </v>
   <v>       0.00274348 </v>
   <v>       0.00274348 </v>
   <v>       0.00274348 </v>
   <v>       0.00274348 </v>
   <v>       0.00274348 </v>
   <v>       0.00274348 </v>
   <v>       0.00274348 </v>
   <v>       0.00274348 </v>
   <v>       0.00274348 </v>
   <v>       0.00274348 </v>
   <v>       0.00274348 </v>
   <v>       0.00274348 </v>
   <v>       0.00274348 </v>
   <v>       0.00274348 </v>
   <v>       0.00274348 </v>
  </varray>
 </kpoints>
 <parameters>
  <separator name="general" >
   <i type="string" name="SYSTEM">al</i>
   <i type="logical" name="LCOMPAT"> F  </i>
  </separator>
  <separator name="electronic" >
   <i type="string" name="PREC">accura</i>
   <i name="ENMAX">    600.00000000</i>
   <i name="ENAUG">    291.05200000</i>
   <i name="EDIFF">      0.00000100</i>
   <i type="int" name="IALGO">    38</i>
   <i type="int" name="IWAVPR">    10</i>
   <i type="int" name="NBANDS">    72</i>
   <i type="int" name="NBANDSLOW">    -1</i>
   <i type="int" name="NBANDSHIGH">    -1</i>
   <i name="NELECT">     96.00000000</i>
   <i type="int" name="TURBO">     0</i>
   <i type="int" name="IRESTART">     0</i>
   <i type="int" name="NREBOOT">     0</i>
   <i type="int" name="NMIN">     0</i>
   <i name="EREF">      0.00000000</i>
   <separator name="electronic smearing" >
    <i type="int" name="ISMEAR">     0</i>
    <i name="SIGMA">      0.05000000</i>
    <i name="KSPACING">      0.50000000</i>
    <i type="logical" name="KGAMMA"> T  </i>
    <i type="logical" name="KBLOWUP"> T  </i>
   </separator>
   <separator name="electronic projectors" >
    <i type="logical" name="LREAL"> T  </i>
    <v name="ROPT">     -0.00025000</v>
    <i type="int" name="LMAXPAW">    -1</i>
    <i type="int" name="LMAXMIX">     2</i>
    <i type="logical" name="NLSPLINE"> F  </i>
   </separator>
   <separator name="electronic startup" >
    <i type="int" name="ISTART">     0</i>
    <i type="int" name="ICHARG">     2</i>
    <i type="int" name="INIWAV">     1</i>
   </separator>
   <separator name="electronic spin" >
    <i type="int" name="ISPIN">     1</i>
    <i type="logical" name="LNONCOLLINEAR"> F  </i>
    <v name="MAGMOM">      1.00000000      1.00000000      1.00000000      1.00000000      1.00000000      1.00000000      1.00000000      1.00000000      1.00000000      1.00000000      1.00000000      1.00000000      1.00000000      1.00000000      1.00000000      1.00000000      1.00000000      1.00000000      1.00000000      1.00000000
      1.00000000      1.00000000      1.00000000      1.00000000      1.00000000      1.00000000      1.00000000      1.00000000      1.00000000      1.00000000      1.00000000      1.00000000</v>
    <i name="NUPDOWN">     -1.00000000</i>
    <i type="logical" name="LSORBIT"> F  </i>
    <v name="SAXIS">      0.00000000      0.00000000      1.00000000</v>
    <i type="logical" name="LSPIRAL"> F  </i>
    <v name="QSPIRAL">      0.00000000      0.00000000      0.00000000</v>
    <i type="logical" name="LZEROZ"> F  </i>
   </separator>
   <separator name="electronic exchange-correlation" >
    <i type="logical" name="LASPH"> F  </i>
    <i type="logical" name="LMETAGGA"> F  </i>
   </separator>
   <separator name="electronic convergence" >
    <i type="int" name="NELM">   200</i>
    <i type="int" name="NELMDL">    -5</i>
    <i type="int" name="NELMIN">     2</i>
    <i name="ENINI">    600.00000000</i>
    <separator name="electronic convergence detail" >
     <i type="logical" name="LDIAG"> T  </i>
     <i type="logical" name="LSUBROT"> F  </i>
     <i name="WEIMIN">      0.00000000</i>
     <i name="EBREAK">      0.00000000</i>
     <i name="DEPER">      0.30000000</i>
     <i type="int" name="NRMM">     4</i>
     <i name="TIME">      0.40000000</i>
    </separator>
   </separator>
   <separator name="electronic mixer" >
    <i name="AMIX">      0.40000000</i>
    <i name="BMIX">      1.00000000</i>
    <i name="AMIN">      0.10000000</i>
    <i name="AMIX_MAG">      1.60000000</i>
    <i name="BMIX_MAG">      1.00000000</i>
    <separator name="electronic mixer details" >
     <i type="int" name="IMIX">     4</i>
     <i type="logical" name="MIXFIRST"> F  </i>
     <i type="int" name="MAXMIX">   -45</i>
     <i name="WC">    100.00000000</i>
     <i type="int" name="INIMIX">     1</i>
     <i type="int" name="MIXPRE">     1</i>
     <i type="int" name="MREMOVE">     5</i>
    </separator>
   </separator>
   <separator name="electronic dipolcorrection" >
    <i type="logical" name="LDIPOL"> F  </i>
    <i type="logical" name="LMONO"> F  </i>
    <i type="int" name="IDIPOL">     0</i>
    <i name="EPSILON">      1.00000000</i>
    <v name="DIPOL">   -100.00000000   -100.00000000   -100.00000000</v>
    <i name="EFIELD">      0.00000000</i>
   </separator>
  </separator>
  <separator name="grids" >
   <i type="int" name="NGX">    70</i>
   <i type="int" name="NGY">    70</i>
   <i type="int" name="NGZ">    70</i>
   <i type="int" name="NGXF">   140</i>
   <i type="int" name="NGYF">   140</i>
   <i type="int" name="NGZF">   140</i>
   <i type="logical" name="ADDGRID"> F  </i>
  </separator>
  <separator name="ionic" >
   <i type="int" name="NSW">     0</i>
   <i type="int" name="IBRION">    -1</i>
   <i type="int" name="MDALGO">     0</i>
   <i type="int" name="ISIF">     2</i>
   <i name="PSTRESS">      0.00000000</i>
   <i name="EDIFFG">      0.00001000</i>
   <i type="int" name="NFREE">     0</i>
   <i name="POTIM">      0.50000000</i>
   <i name="SMASS">     -3.00000000</i>
   <i name="SCALEE">      1.00000000</i>
  </separator>
  <separator name="ionic md" >
   <i name="TEBEG">      0.00010000</i>
   <i name="TEEND">      0.00010000</i>
   <i type="int" name="NBLOCK">     1</i>
   <i type="int" name="KBLOCK">     1</i>
   <i type="int" name="NPACO">   256</i>
   <i name="APACO">     16.00000000</i>
  </separator>
  <separator name="symmetry" >
   <i type="int" name="ISYM">     2</i>
   <i name="SYMPREC">      0.00001000</i>
  </separator>
  <separator name="dos" >
   <i type="int" name="LORBIT">     0</i>
   <v name="RWIGS">     -1.00000000</v>
   <i type="int" name="NEDOS">   301</i>
   <i name="EMIN">     10.00000000</i>
   <i name="EMAX">    -10.00000000</i>
   <i name="EFERMI">      0.00000000</i>
  </separator>
  <separator name="writing" >
   <i type="int" name="NWRITE">     2</i>
   <i type="logical" name="LWAVE"> F  </i>
   <i type="logical" name="LDOWNSAMPLE"> F  </i>
   <i type="logical" name="LCHARG"> T  </i>
   <i type="logical" name="LPARD"> F  </i>
   <i type="logical" name="LVTOT"> F  </i>
   <i type="logical" name="LVHAR"> F  </i>
   <i type="logical" name="LELF"> F  </i>
   <i type="logical" name="LOPTICS"> F  </i>
   <v name="STM">      0.00000000      0.00000000      0.00000000      0.00000000      0.00000000      0.00000000      0.00000000</v>
  </separator>
  <separator name="performance" >
   <i type="int" name="NPAR">     8</i>
   <i type="int" name="NSIM">     8</i>
   <i type="int" name="NBLK">    -1</i>
   <i type="logical" name="LPLANE"> T  </i>
   <i type="logical" name="LSCALAPACK"> T  </i>
   <i type="logical" name="LSCAAWARE"> F  </i>
   <i type="logical" name="LSCALU"> F  </i>
   <i type="logical" name="LASYNC"> F  </i>
   <i type="logical" name="LORBITALREAL"> F  </i>
  </separator>
  <separator name="miscellaneous" >
   <i type="int" name="IDIOT">     3</i>
   <i type="int" name="PHON_NSTRUCT">    -1</i>
   <i type="logical" name="LMUSIC"> F  </i>
   <v name="POMASS">     26.98100000</v>
   <v name="DARWINR">      0.00000000</v>
   <v name="DARWINV">      1.00000000</v>
   <i type="logical" name="LCORR"> T  </i>
  </separator>
  <i type="logical" name="GGA_COMPAT"> T  </i>
  <i type="logical" name="LBERRY"> F  </i>
  <i type="int" name="ICORELEVEL">     0</i>
  <i type="logical" name="LDAU"> F  </i>
  <i type="int" name="I_CONSTRAINED_M">     0</i>
  <separator name="electronic exchange-correlation" >
   <i type="string" name="GGA">PE</i>
   <i type="int" name="VOSKOWN">     0</i>
   <i type="logical" name="LHFCALC"> F  </i>
   <i type="string" name="PRECFOCK"></i>
   <i type="logical" name="LSYMGRAD"> F  </i>
   <i type="logical" name="LHFONE"> F  </i>
   <i type="logical" name="LRHFCALC"> F  </i>
   <i type="logical" name="LTHOMAS"> F  </i>
   <i type="logical" name="LMODELHF"> F  </i>
   <i type="logical" name="LFOCKACE"> F  </i>
   <i name="ENCUT4O">     -1.00000000</i>
   <i type="int" name="EXXOEP">     0</i>
   <i type="int" name="FOURORBIT">     0</i>
   <i name="AEXX">      0.00000000</i>
   <i name="HFALPHA">      0.00000000</i>
   <i name="MCALPHA">      0.00000000</i>
   <i name="ALDAX">      1.00000000</i>
   <i name="AGGAX">      1.00000000</i>
   <i name="ALDAC">      1.00000000</i>
   <i name="AGGAC">      1.00000000</i>
   <i type="int" name="NKREDX">     1</i>
   <i type="int" name="NKREDY">     1</i>
   <i type="int" name="NKREDZ">     1</i>
   <i type="logical" name="SHIFTRED"> F  </i>
   <i type="logical" name="ODDONLY"> F  </i>
   <i type="logical" name="EVENONLY"> F  </i>
   <i type="int" name="LMAXFOCK">     0</i>
   <i type="int" name="NMAXFOCKAE">     0</i>
   <i type="logical" name="LFOCKAEDFT"> F  </i>
   <i name="HFSCREEN">      0.00000000</i>
   <i name="HFSCREENC">      0.00000000</i>
   <i type="int" name="NBANDSGWLOW">     0</i>
  </separator>
  <separator name="vdW DFT" >
   <i type="logical" name="LUSE_VDW"> F  </i>
   <i name="Zab_VDW">     -0.84910000</i>
   <i name="PARAM1">      0.12340000</i>
   <i name="PARAM2">      1.00000000</i>
   <i name="PARAM3">      0.00000000</i>
  </separator>
  <separator name="model GW" >
   <i type="int" name="MODEL_GW">     0</i>
   <i name="MODEL_EPS0">      9.88389577</i>
   <i name="MODEL_ALPHA">      1.00000000</i>
  </separator>
  <separator name="linear response parameters" >
   <i type="logical" name="LEPSILON"> F  </i>
   <i type="logical" name="LRPA"> F  </i>
   <i type="logical" name="LNABLA"> F  </i>
   <i type="logical" name="LVEL"> F  </i>
   <i type="int" name="KINTER">     0</i>
   <i name="CSHIFT">      0.10000000</i>
   <i name="OMEGAMAX">     -1.00000000</i>
   <i name="DEG_THRESHOLD">      0.00200000</i>
   <i name="RTIME">     -0.10000000</i>
   <i name="WPLASMAI">      0.00000000</i>
   <v name="DFIELD">      0.00000000      0.00000000      0.00000000</v>
   <v name="WPLASMA">      0.00000000      0.00000000      0.00000000      0.00000000      0.00000000      0.00000000      0.00000000      0.00000000      0.00000000</v>
  </separator>
  <separator name="orbital magnetization" >
   <i type="logical" name="NUCIND"> F  </i>
   <v name="MAGPOS">      0.00000000      0.00000000      0.00000000</v>
   <i type="logical" name="LNICSALL"> T  </i>
   <i type="logical" name="ORBITALMAG"> F  </i>
   <i type="logical" name="LMAGBLOCH"> F  </i>
   <i type="logical" name="LCHIMAG"> F  </i>
   <i type="logical" name="LGAUGE"> T  </i>
   <i type="int" name="MAGATOM">     0</i>
   <v name="MAGDIPOL">      0.00000000      0.00000000      0.00000000</v>
   <v name="AVECCONST">      0.00000000      0.00000000      0.00000000</v>
  </separator>
  <separator name="response functions" >
   <i type="logical" name="LFINITE_TEMPERATURE"> F  </i>
   <i type="logical" name="LADDER"> F  </i>
   <i type="logical" name="LRPAFORCE"> F  </i>
   <i type="logical" name="LFXC"> F  </i>
   <i type="logical" name="LHARTREE"> T  </i>
   <i type="int" name="IBSE">     0</i>
   <v type="int" name="KPOINT">    -1     0     0     0</v>
   <i type="logical" name="LTCTC"> F  </i>
   <i type="logical" name="LTCTE"> F  </i>
   <i type="logical" name="LTETE"> F  </i>
   <i type="logical" name="LTRIPLET"> F  </i>
   <i type="logical" name="LFXCEPS"> F  </i>
   <i type="logical" name="LFXHEG"> F  </i>
   <i type="int" name="NATURALO">     2</i>
   <i type="logical" name="LHOLEGF"> F  </i>
   <i type="logical" name="L2ORDER"> F  </i>
   <i type="logical" name="LDMP1"> F  </i>
   <i type="logical" name="LMP2LT"> F  </i>
   <i type="logical" name="LSMP2LT"> F  </i>
   <i type="logical" name="LGWLF"> F  </i>
   <i name="ENCUTGW">     -2.00000000</i>
   <i name="ENCUTGWSOFT">     -2.00000000</i>
   <i name="ENCUTLF">     -1.00000000</i>
   <i type="logical" name="LESF_SPLINES"> F  </i>
   <i type="int" name="LMAXMP2">    -1</i>
   <i name="SCISSOR">      0.00000000</i>
   <i type="int" name="NOMEGA">     0</i>
   <i type="int" name="NOMEGAR">     0</i>
   <i type="int" name="NBANDSGW">    -1</i>
   <i type="int" name="NBANDSO">    -1</i>
   <i type="int" name="NBANDSV">    -1</i>
   <i type="int" name="NELM">   200</i>
   <i type="int" name="NELMHF">     1</i>
   <i type="int" name="DIM">     3</i>
   <i type="int" name="IESPILON">     4</i>
   <i type="int" name="ANTIRES">     0</i>
   <i name="OMEGAMAX">    -30.00000000</i>
   <i name="OMEGAMIN">    -30.00000000</i>
   <i name="OMEGATL">   -200.00000000</i>
   <i type="int" name="OMEGAGRID">     0</i>
   <i name="CSHIFT">     -0.10000000</i>
   <i type="logical" name="LSELFENERGY"> F  </i>
   <i type="logical" name="LSPECTRAL"> F  </i>
   <i type="logical" name="LSPECTRALGW"> F  </i>
   <i type="logical" name="LSINGLES"> F  </i>
   <i type="logical" name="LFERMIGW"> F  </i>
   <i type="logical" name="ODDONLYGW"> F  </i>
   <i type="logical" name="EVENONLYGW"> F  </i>
   <i type="int" name="NKREDLFX">     1</i>
   <i type="int" name="NKREDLFY">     1</i>
   <i type="int" name="NKREDLFZ">     1</i>
   <i type="int" name="MAXMEM">  2800</i>
   <i type="int" name="TELESCOPE">     0</i>
   <i type="int" name="NTAUPAR">    -1</i>
   <i type="int" name="NOMEGAPAR">    -1</i>
   <i name="DAMP_NEWTON">      0.80000001</i>
   <i name="LAMBDA">      1.00000000</i>
  </separator>
  <separator name="External order field" >
   <i name="OFIELD_KAPPA">      0.00000000</i>
   <v name="OFIELD_K">      0.00000000      0.00000000      0.00000000</v>
   <i name="OFIELD_Q6_NEAR">      0.00000000</i>
   <i name="OFIELD_Q6_FAR">      0.00000000</i>
   <i name="OFIELD_A">      0.00000000</i>
  </separator>
 </parameters>
 <atominfo>
  <atoms>      32 </atoms>
  <types>       1 </types>
  <array name="atoms" >
   <dimension dim="1">ion</dimension>
   <field type="string">element</field>
   <field type="int">atomtype</field>
   <set>
    <rc><c>Al</c><c>   1</c></rc>
    <rc><c>Al</c><c>   1</c></rc>
    <rc><c>Al</c><c>   1</c></rc>
    <rc><c>Al</c><c>   1</c></rc>
    <rc><c>Al</c><c>   1</c></rc>
    <rc><c>Al</c><c>   1</c></rc>
    <rc><c>Al</c><c>   1</c></rc>
    <rc><c>Al</c><c>   1</c></rc>
    <rc><c>Al</c><c>   1</c></rc>
    <rc><c>Al</c><c>   1</c></rc>
    <rc><c>Al</c><c>   1</c></rc>
    <rc><c>Al</c><c>   1</c></rc>
    <rc><c>Al</c><c>   1</c></rc>
    <rc><c>Al</c><c>   1</c></rc>
    <rc><c>Al</c><c>   1</c></rc>
    <rc><c>Al</c><c>   1</c></rc>
    <rc><c>Al</c><c>   1</c></rc>
    <rc><c>Al</c><c>   1</c></rc>
    <rc><c>Al</c><c>   1</c></rc>
    <rc><c>Al</c><c>   1</c></rc>
    <rc><c>Al</c><c>   1</c></rc>
    <rc><c>Al</c><c>   1</c></rc>
    <rc><c>Al</c><c>   1</c></rc>
    <rc><c>Al</c><c>   1</c></rc>
    <rc><c>Al</c><c>   1</c></rc>
    <rc><c>Al</c><c>   1</c></rc>
    <rc><c>Al</c><c>   1</c></rc>
    <rc><c>Al</c><c>   1</c></rc>
    <rc><c>Al</c><c>   1</c></rc>
    <rc><c>Al</c><c>   1</c></rc>
    <rc><c>Al</c><c>   1</c></rc>
    <rc><c>Al</c><c>   1</c></rc>
   </set>
  </array>
  <array name="atomtypes" >
   <dimension dim="1">type</dimension>
   <field type="int">atomspertype</field>
   <field type="string">element</field>
   <field>mass</field>
   <field>valence</field>
   <field type="string">pseudopotential</field>
   <set>
    <rc><c>  32</c><c>Al</c><c>     26.98100000</c><c>      3.00000000</c><c>  PAW_PBE Al 04Jan2001                  </c></rc>
   </set>
  </array>
 </atominfo>
 <structure name="initialpos" >
  <crystal>
   <varray name="basis" >
    <v>       8.07809510       0.00000000       0.00000000 </v>
    <v>       0.00000000       8.07809510       0.00000000 </v>
    <v>       0.00000000       0.00000000       8.07809510 </v>
   </varray>
   <i name="volume">    527.14110776 </i>
   <varray name="rec_basis" >
    <v>       0.12379156       0.00000000       0.00000000 </v>
    <v>       0.00000000       0.12379156       0.00000000 </v>
    <v>       0.00000000       0.00000000       0.12379156 </v>
   </varray>
  </crystal>
  <varray name="positions" >
   <v>       0.98588962       0.99093003       0.99445209 </v>
   <v>       0.99918943       0.25669482       0.25901302 </v>
   <v>       0.23490487       0.00187551       0.23663742 </v>
   <v>       0.23755520       0.25017208       0.99511829 </v>
   <v>       0.99473468       0.99537668       0.49773862 </v>
   <v>       0.01700319       0.25276165       0.73602379 </v>
   <v>       0.23440058       0.00068822       0.74248338 </v>
   <v>       0.27664895       0.22858355       0.48921912 </v>
   <v>       0.00012115       0.50628885       0.00192916 </v>
   <v>       0.02050125       0.73234079       0.26695160 </v>
   <v>       0.25662359       0.48914093       0.24935130 </v>
   <v>       0.24358378       0.75040747       0.98629922 </v>
   <v>       0.01643190       0.51359946       0.51660052 </v>
   <v>       0.98879043       0.75815039       0.75634485 </v>
   <v>       0.25006333       0.50515051       0.75994041 </v>
   <v>       0.25613991       0.75692448       0.48849563 </v>
   <v>       0.49667808       0.01583187       0.99710339 </v>
   <v>       0.49960933       0.24836594       0.24790321 </v>
   <v>       0.77686105       0.99924045       0.25117638 </v>
   <v>       0.75864505       0.25350470       0.98850618 </v>
   <v>       0.50708865       0.98394608       0.51229137 </v>
   <v>       0.49480282       0.24551833       0.74732431 </v>
   <v>       0.72968101       0.00377742       0.75377964 </v>
   <v>       0.73497129       0.25766878       0.51085182 </v>
   <v>       0.49985365       0.48680231       0.98818800 </v>
   <v>       0.50556395       0.75258882       0.24715070 </v>
   <v>       0.73252269       0.48390082       0.22888392 </v>
   <v>       0.73515435       0.73838909       0.99605835 </v>
   <v>       0.51115179       0.51948830       0.48584222 </v>
   <v>       0.48871719       0.75159436       0.74862725 </v>
   <v>       0.75525764       0.49837084       0.73531818 </v>
   <v>       0.75147566       0.73929853       0.49379861 </v>
  </varray>
 </structure>
 <calculation>
  <scstep>
   <time name="dav">   46.88   47.21</time>
   <time name="total">   46.94   47.27</time>
   <energy>
    <i name="alphaZ">     -6.52466918 </i>
    <i name="ewald">  -2346.94035371 </i>
    <i name="hartreedc">     -5.77344160 </i>
    <i name="XCdc">   -839.46701712 </i>
    <i name="pawpsdc">   2118.40502803 </i>
    <i name="pawaedc">  -1095.85986421 </i>
    <i name="eentropy">     -0.00848083 </i>
    <i name="bandstr">    600.73763475 </i>
    <i name="atom">   1713.23359074 </i>
    <i name="e_fr_energy">    137.80242687 </i>
    <i name="e_wo_entrp">    137.81090770 </i>
    <i name="e_0_energy">    137.80666729 </i>
   </energy>
  </scstep>
  <scstep>
   <time name="dav">   53.77   54.13</time>
   <time name="total">   53.78   54.14</time>
   <energy>
    <i name="e_fr_energy">   -106.41374192 </i>
    <i name="e_wo_entrp">   -106.39864332 </i>
    <i name="e_0_energy">   -106.40619262 </i>
   </energy>
  </scstep>
  <scstep>
   <time name="dav">   56.97   57.35</time>
   <time name="total">   56.98   57.36</time>
   <energy>
    <i name="e_fr_energy">   -119.32026126 </i>
    <i name="e_wo_entrp">   -119.30365487 </i>
    <i name="e_0_energy">   -119.31195807 </i>
   </energy>
  </scstep>
  <scstep>
   <time name="dav">   55.38   55.76</time>
   <time name="total">   55.39   55.77</time>
   <energy>
    <i name="e_fr_energy">   -119.55990866 </i>
    <i name="e_wo_entrp">   -119.54330290 </i>
    <i name="e_0_energy">   -119.55160578 </i>
   </energy>
  </scstep>
  <scstep>
   <time name="dav">   54.80   55.16</time>
   <time name="total">   57.52   57.90</time>
   <energy>
    <i name="e_fr_energy">   -119.56251163 </i>
    <i name="e_wo_entrp">   -119.54590884 </i>
    <i name="e_0_energy">   -119.55421024 </i>
   </energy>
  </scstep>
  <scstep>
   <time name="dav">   59.39   59.76</time>
   <time name="total">   62.48   62.88</time>
   <energy>
    <i name="e_fr_energy">   -118.95160885 </i>
    <i name="e_wo_entrp">   -118.93551396 </i>
    <i name="e_0_energy">   -118.94356141 </i>
   </energy>
  </scstep>
  <scstep>
   <time name="dav">   58.64   59.01</time>
   <time name="total">   61.76   62.15</time>
   <energy>
    <i name="e_fr_energy">   -118.66334415 </i>
    <i name="e_wo_entrp">   -118.64750191 </i>
    <i name="e_0_energy">   -118.65542303 </i>
   </energy>
  </scstep>
  <scstep>
   <time name="dav">   59.02   59.39</time>
   <time name="total">   62.13   62.54</time>
   <energy>
    <i name="e_fr_energy">   -118.64092185 </i>
    <i name="e_wo_entrp">   -118.62495451 </i>
    <i name="e_0_energy">   -118.63293818 </i>
   </energy>
  </scstep>
  <scstep>
   <time name="dav">   58.75   59.12</time>
   <time name="total">   61.89   62.29</time>
   <energy>
    <i name="e_fr_energy">   -118.63929560 </i>
    <i name="e_wo_entrp">   -118.62328091 </i>
    <i name="e_0_energy">   -118.63128826 </i>
   </energy>
  </scstep>
  <scstep>
   <time name="dav">   60.33   60.71</time>
   <time name="total">   63.45   63.85</time>
   <energy>
    <i name="e_fr_energy">   -118.63920791 </i>
    <i name="e_wo_entrp">   -118.62318487 </i>
    <i name="e_0_energy">   -118.63119639 </i>
   </energy>
  </scstep>
  <scstep>
   <time name="dav">   59.79   60.17</time>
   <time name="total">   62.93   63.34</time>
   <energy>
    <i name="e_fr_energy">   -118.63920717 </i>
    <i name="e_wo_entrp">   -118.62318428 </i>
    <i name="e_0_energy">   -118.63119572 </i>
   </energy>
  </scstep>
  <scstep>
   <time name="dav">   40.40   40.66</time>
   <time name="total">   40.48   40.75</time>
   <energy>
    <i name="alphaZ">     -6.52466918 </i>
    <i name="ewald">  -2346.94035371 </i>
    <i name="hartreedc">     -7.05585651 </i>
    <i name="XCdc">   -835.86457773 </i>
    <i name="pawpsdc">   2118.40502803 </i>
    <i name="pawaedc">  -1095.85986421 </i>
    <i name="eentropy">     -0.01602291 </i>
    <i name="bandstr">    341.98351839 </i>
    <i name="atom">   1713.23359074 </i>
    <i name="e_fr_energy">   -118.63920710 </i>
    <i name="e_wo_entrp">   -118.62318418 </i>
    <i name="e_0_energy">   -118.63119564 </i>
   </energy>
  </scstep>
  <structure>
   <crystal>
    <varray name="basis" >
     <v>       8.07809510       0.00000000       0.00000000 </v>
     <v>       0.00000000       8.07809510       0.00000000 </v>
     <v>       0.00000000       0.00000000       8.07809510 </v>
    </varray>
    <i name="volume">    527.14110776 </i>
    <varray name="rec_basis" >
     <v>       0.12379156       0.00000000       0.00000000 </v>
     <v>       0.00000000       0.12379156       0.00000000 </v>
     <v>       0.00000000       0.00000000       0.12379156 </v>
    </varray>
   </crystal>
   <varray name="positions" >
    <v>       0.98588962       0.99093003       0.99445209 </v>
    <v>       0.99918943       0.25669482       0.25901302 </v>
    <v>       0.23490487       0.00187551       0.23663742 </v>
    <v>       0.23755520       0.25017208       0.99511829 </v>
    <v>       0.99473468       0.99537668       0.49773862 </v>
    <v>       0.01700319       0.25276165       0.73602379 </v>
    <v>       0.23440058       0.00068822       0.74248338 </v>
    <v>       0.27664895       0.22858355       0.48921912 </v>
    <v>       0.00012115       0.50628885       0.00192916 </v>
    <v>       0.02050125       0.73234079       0.26695160 </v>
    <v>       0.25662359       0.48914093       0.24935130 </v>
    <v>       0.24358378       0.75040747       0.98629922 </v>
    <v>       0.01643190       0.51359946       0.51660052 </v>
    <v>       0.98879043       0.75815039       0.75634485 </v>
    <v>       0.25006333       0.50515051       0.75994041 </v>
    <v>       0.25613991       0.75692448       0.48849563 </v>
    <v>       0.49667808       0.01583187       0.99710339 </v>
    <v>       0.49960933       0.24836594       0.24790321 </v>
    <v>       0.77686105       0.99924045       0.25117638 </v>
    <v>       0.75864505       0.25350470       0.98850618 </v>
    <v>       0.50708865       0.98394608       0.51229137 </v>
    <v>       0.49480282       0.24551833       0.74732431 </v>
    <v>       0.72968101       0.00377742       0.75377964 </v>
    <v>       0.73497129       0.25766878       0.51085182 </v>
    <v>       0.49985365       0.48680231       0.98818800 </v>
    <v>       0.50556395       0.75258882       0.24715070 </v>
    <v>       0.73252269       0.48390082       0.22888392 </v>
    <v>       0.73515435       0.73838909       0.99605835 </v>
    <v>       0.51115179       0.51948830       0.48584222 </v>
    <v>       0.48871719       0.75159436       0.74862725 </v>
    <v>       0.75525764       0.49837084       0.73531818 </v>
    <v>       0.75147566       0.73929853       0.49379861 </v>
   </varray>
  </structure>
  <varray name="forces" >
   <v>       0.20226507       0.21232439       0.05455081 </v>
   <v>      -0.03467978       0.14197252       0.04623204 </v>
   <v>       0.37240759      -0.18373369       0.01743270 </v>
   <v>       0.09057514      -0.08799764       0.11480896 </v>
   <v>       0.05054453       0.21934736       0.28163278 </v>
   <v>      -0.56428723      -0.00757071       0.07257580 </v>
   <v>       0.41050706      -0.16660633       0.19850503 </v>
   <v>      -0.62244436       0.58436328       0.17890607 </v>
   <v>      -0.14792073      -0.10596177       0.01291307 </v>
   <v>      -0.74906021       0.23107850      -0.77302441 </v>
   <v>       0.05222570       0.16824028      -0.06112706 </v>
   <v>       0.27332591       0.16664920       0.57690354 </v>
   <v>      -0.13086672      -0.59062832      -0.38105071 </v>
   <v>      -0.04215702      -0.13238181      -0.26924357 </v>
   <v>       0.09084380      -0.16136125      -0.56421436 </v>
   <v>       0.11466796      -0.09724960       0.45468811 </v>
   <v>      -0.13232401      -0.49444085       0.29616516 </v>
   <v>       0.19642643      -0.44710013      -0.13555947 </v>
   <v>      -0.89301693      -0.12894992      -0.08829509 </v>
   <v>       0.04486596      -0.22312776      -0.00190548 </v>
   <v>      -0.02195771       0.32493393      -0.76140183 </v>
   <v>      -0.18926327       0.38226772       0.01548033 </v>
   <v>       0.73491297      -0.25060339      -0.07474765 </v>
   <v>       0.50871642      -0.34802823      -0.56199977 </v>
   <v>      -0.19638305       0.25260359       0.07152211 </v>
   <v>      -0.23096977       0.32803192      -0.38548120 </v>
   <v>       0.71767952       0.43799745       0.51802971 </v>
   <v>       0.21088490       0.33653300       0.04936696 </v>
   <v>      -0.59269205      -0.67870314       0.45620404 </v>
   <v>       0.23168627      -0.19906489       0.18153612 </v>
   <v>      -0.15452770       0.11023628       0.51511578 </v>
   <v>       0.40001533       0.40692999      -0.05451851 </v>
  </varray>
  <varray name="stress" >
   <v>      13.00101902       1.21295531       2.73507198 </v>
   <v>       1.21295526      11.56871799       0.72359849 </v>
   <v>       2.73507203       0.72359850      15.76165614 </v>
  </varray>
  <energy>
   <i name="e_fr_energy">   -118.63920710 </i>
   <i name="e_wo_entrp">   -118.62318418 </i>
   <i name="e_0_energy">   -118.63119564 </i>
  </energy>
  <time name="totalsc">  756.71  761.69</time>
  <eigenvalues>
   <array>
    <dimension dim="1">band</dimension>
    <dimension dim="2">kpoint</dimension>
    <dimension dim="3">spin</dimension>
    <field>eigene</field>
    <field>occ</field>
    <set>
     <set comment="spin 1">
      <set comment="kpoint 1">
       <r>   -3.1630    1.0000 </r>
       <r>   -1.0555    1.0000 </r>
       <r>   -1.0071    1.0000 </r>
       <r>   -0.9833    1.0000 </r>
       <r>   -0.9194    1.0000 </r>
       <r>   -0.8184    1.0000 </r>
       <r>   -0.7234    1.0000 </r>
       <r>    0.9949    1.0000 </r>
       <r>    1.1236    1.0000 </r>
       <r>    1.1618    1.0000 </r>
       <r>    1.1652    1.0000 </r>
       <r>    1.2184    1.0000 </r>
       <r>    1.2883    1.0000 </r>
       <r>    1.3228    1.0000 </r>
       <r>    1.3627    1.0000 </r>
       <r>    1.4519    1.0000 </r>
       <r>    1.4857    1.0000 </r>
       <r>    1.5468    1.0000 </r>
       <r>    1.6312    1.0000 </r>
       <r>    3.3147    1.0000 </r>
       <r>    3.3479    1.0000 </r>
       <r>    3.3864    1.0000 </r>
       <r>    3.4016    1.0000 </r>
       <r>    3.5990    1.0000 </r>
       <r>    3.6287    1.0000 </r>
       <r>    3.6568    1.0000 </r>
       <r>    3.6927    1.0000 </r>
       <r>    5.0691    1.0000 </r>
       <r>    5.0765    1.0000 </r>
       <r>    5.1082    1.0000 </r>
       <r>    6.3294    1.0000 </r>
       <r>    6.3543    1.0000 </r>
       <r>    6.3639    1.0000 </r>
       <r>    6.8860    1.0000 </r>
       <r>    6.9322    1.0000 </r>
       <r>    6.9474    1.0000 </r>
       <r>    6.9827    1.0000 </r>
       <r>    7.0366    1.0000 </r>
       <r>    7.1605    1.0000 </r>
       <r>    7.1741    1.0000 </r>
       <r>    7.2058    1.0000 </r>
       <r>    7.2467    1.0000 </r>
       <r>    7.3861    1.0000 </r>
       <r>    7.4147    1.0000 </r>
       <r>    7.4370    1.0000 </r>
       <r>    7.9857    0.7521 </r>
       <r>    8.0454    0.1567 </r>
       <r>    8.0679    0.0501 </r>
       <r>    8.2262    0.0000 </r>
       <r>    8.3038    0.0000 </r>
       <r>    8.3190    0.0000 </r>
       <r>    8.8919    0.0000 </r>
       <r>    8.9902    0.0000 </r>
       <r>    9.0011    0.0000 </r>
       <r>    9.0360    0.0000 </r>
       <r>    9.0428    0.0000 </r>
       <r>    9.0708    0.0000 </r>
       <r>    9.0883    0.0000 </r>
       <r>    9.0964    0.0000 </r>
       <r>    9.1785    0.0000 </r>
       <r>    9.2479    0.0000 </r>
       <r>    9.2611    0.0000 </r>
       <r>    9.2812    0.0000 </r>
       <r>    9.3010    0.0000 </r>
       <r>    9.3170    0.0000 </r>
       <r>    9.3515    0.0000 </r>
       <r>    9.4036    0.0000 </r>
       <r>    9.4499    0.0000 </r>
       <r>    9.5562    0.0000 </r>
       <r>   10.5433    0.0000 </r>
       <r>   10.6127    0.0000 </r>
       <r>   10.6353    0.0000 </r>
      </set>
      <set comment="kpoint 2">
       <r>   -3.1352    1.0000 </r>
       <r>   -1.4017    1.0000 </r>
       <r>   -0.9970    1.0000 </r>
       <r>   -0.9595    1.0000 </r>
       <r>   -0.8764    1.0000 </r>
       <r>   -0.7326    1.0000 </r>
       <r>   -0.3816    1.0000 </r>
       <r>    0.7175    1.0000 </r>
       <r>    0.7379    1.0000 </r>
       <r>    0.8445    1.0000 </r>
       <r>    0.9680    1.0000 </r>
       <r>    1.2427    1.0000 </r>
       <r>    1.3344    1.0000 </r>
       <r>    1.3573    1.0000 </r>
       <r>    1.4227    1.0000 </r>
       <r>    1.7285    1.0000 </r>
       <r>    1.8218    1.0000 </r>
       <r>    1.8766    1.0000 </r>
       <r>    2.0152    1.0000 </r>
       <r>    2.9520    1.0000 </r>
       <r>    3.0233    1.0000 </r>
       <r>    3.0441    1.0000 </r>
       <r>    3.1174    1.0000 </r>
       <r>    3.9357    1.0000 </r>
       <r>    4.0192    1.0000 </r>
       <r>    4.0356    1.0000 </r>
       <r>    4.1051    1.0000 </r>
       <r>    4.6067    1.0000 </r>
       <r>    5.1026    1.0000 </r>
       <r>    5.1134    1.0000 </r>
       <r>    6.3609    1.0000 </r>
       <r>    6.3762    1.0000 </r>
       <r>    6.5140    1.0000 </r>
       <r>    6.5382    1.0000 </r>
       <r>    6.6479    1.0000 </r>
       <r>    6.6922    1.0000 </r>
       <r>    6.7378    1.0000 </r>
       <r>    6.8538    1.0000 </r>
       <r>    6.9465    1.0000 </r>
       <r>    7.1213    1.0000 </r>
       <r>    7.1382    1.0000 </r>
       <r>    7.2085    1.0000 </r>
       <r>    7.3110    1.0000 </r>
       <r>    7.6215    1.0000 </r>
       <r>    7.6928    1.0000 </r>
       <r>    7.9527    0.9467 </r>
       <r>    7.9959    0.6527 </r>
       <r>    8.2457    0.0000 </r>
       <r>    8.3862    0.0000 </r>
       <r>    8.4683    0.0000 </r>
       <r>    8.5388    0.0000 </r>
       <r>    8.6522    0.0000 </r>
       <r>    8.6927    0.0000 </r>
       <r>    8.7373    0.0000 </r>
       <r>    8.8238    0.0000 </r>
       <r>    8.8443    0.0000 </r>
       <r>    8.8790    0.0000 </r>
       <r>    8.9288    0.0000 </r>
       <r>    9.0318    0.0000 </r>
       <r>    9.2687    0.0000 </r>
       <r>    9.2882    0.0000 </r>
       <r>    9.3183    0.0000 </r>
       <r>    9.3443    0.0000 </r>
       <r>    9.3768    0.0000 </r>
       <r>    9.4286    0.0000 </r>
       <r>    9.6712    0.0000 </r>
       <r>    9.7007    0.0000 </r>
       <r>    9.7596    0.0000 </r>
       <r>    9.8992    0.0000 </r>
       <r>   10.2041    0.0000 </r>
       <r>   10.2997    0.0000 </r>
       <r>   10.3787    0.0000 </r>
      </set>
      <set comment="kpoint 3">
       <r>   -3.1352    1.0000 </r>
       <r>   -1.4085    1.0000 </r>
       <r>   -0.9903    1.0000 </r>
       <r>   -0.9306    1.0000 </r>
       <r>   -0.8516    1.0000 </r>
       <r>   -0.7999    1.0000 </r>
       <r>   -0.3675    1.0000 </r>
       <r>    0.7112    1.0000 </r>
       <r>    0.7808    1.0000 </r>
       <r>    0.8571    1.0000 </r>
       <r>    0.9066    1.0000 </r>
       <r>    1.2164    1.0000 </r>
       <r>    1.3085    1.0000 </r>
       <r>    1.3661    1.0000 </r>
       <r>    1.4720    1.0000 </r>
       <r>    1.7571    1.0000 </r>
       <r>    1.8303    1.0000 </r>
       <r>    1.9016    1.0000 </r>
       <r>    1.9597    1.0000 </r>
       <r>    2.9288    1.0000 </r>
       <r>    2.9839    1.0000 </r>
       <r>    3.0795    1.0000 </r>
       <r>    3.1591    1.0000 </r>
       <r>    3.9095    1.0000 </r>
       <r>    3.9703    1.0000 </r>
       <r>    4.0668    1.0000 </r>
       <r>    4.1355    1.0000 </r>
       <r>    4.5942    1.0000 </r>
       <r>    5.0984    1.0000 </r>
       <r>    5.1359    1.0000 </r>
       <r>    6.3408    1.0000 </r>
       <r>    6.3787    1.0000 </r>
       <r>    6.4985    1.0000 </r>
       <r>    6.5626    1.0000 </r>
       <r>    6.6087    1.0000 </r>
       <r>    6.7158    1.0000 </r>
       <r>    6.8067    1.0000 </r>
       <r>    6.8638    1.0000 </r>
       <r>    6.9043    1.0000 </r>
       <r>    7.0531    1.0000 </r>
       <r>    7.1675    1.0000 </r>
       <r>    7.2292    1.0000 </r>
       <r>    7.2918    1.0000 </r>
       <r>    7.6335    1.0000 </r>
       <r>    7.7090    1.0000 </r>
       <r>    7.9353    0.9824 </r>
       <r>    7.9724    0.8546 </r>
       <r>    8.3290    0.0000 </r>
       <r>    8.4011    0.0000 </r>
       <r>    8.4448    0.0000 </r>
       <r>    8.4908    0.0000 </r>
       <r>    8.6017    0.0000 </r>
       <r>    8.6929    0.0000 </r>
       <r>    8.7456    0.0000 </r>
       <r>    8.7958    0.0000 </r>
       <r>    8.8359    0.0000 </r>
       <r>    8.9036    0.0000 </r>
       <r>    8.9833    0.0000 </r>
       <r>    9.0542    0.0000 </r>
       <r>    9.2479    0.0000 </r>
       <r>    9.2639    0.0000 </r>
       <r>    9.3211    0.0000 </r>
       <r>    9.3628    0.0000 </r>
       <r>    9.3885    0.0000 </r>
       <r>    9.4035    0.0000 </r>
       <r>    9.6588    0.0000 </r>
       <r>    9.7543    0.0000 </r>
       <r>    9.8194    0.0000 </r>
       <r>    9.8698    0.0000 </r>
       <r>   10.2298    0.0000 </r>
       <r>   10.2655    0.0000 </r>
       <r>   10.3116    0.0000 </r>
      </set>
      <set comment="kpoint 4">
       <r>   -3.1353    1.0000 </r>
       <r>   -1.4029    1.0000 </r>
       <r>   -1.0205    1.0000 </r>
       <r>   -0.9317    1.0000 </r>
       <r>   -0.8221    1.0000 </r>
       <r>   -0.7949    1.0000 </r>
       <r>   -0.3788    1.0000 </r>
       <r>    0.6823    1.0000 </r>
       <r>    0.7966    1.0000 </r>
       <r>    0.8787    1.0000 </r>
       <r>    0.9172    1.0000 </r>
       <r>    1.2145    1.0000 </r>
       <r>    1.3103    1.0000 </r>
       <r>    1.3832    1.0000 </r>
       <r>    1.4483    1.0000 </r>
       <r>    1.7246    1.0000 </r>
       <r>    1.8007    1.0000 </r>
       <r>    1.9394    1.0000 </r>
       <r>    1.9700    1.0000 </r>
       <r>    2.9300    1.0000 </r>
       <r>    2.9882    1.0000 </r>
       <r>    3.0931    1.0000 </r>
       <r>    3.1462    1.0000 </r>
       <r>    3.9083    1.0000 </r>
       <r>    3.9701    1.0000 </r>
       <r>    4.0775    1.0000 </r>
       <r>    4.1226    1.0000 </r>
       <r>    4.6061    1.0000 </r>
       <r>    5.1033    1.0000 </r>
       <r>    5.1187    1.0000 </r>
       <r>    6.3383    1.0000 </r>
       <r>    6.3573    1.0000 </r>
       <r>    6.5070    1.0000 </r>
       <r>    6.5370    1.0000 </r>
       <r>    6.6509    1.0000 </r>
       <r>    6.6996    1.0000 </r>
       <r>    6.8143    1.0000 </r>
       <r>    6.8459    1.0000 </r>
       <r>    6.9173    1.0000 </r>
       <r>    7.0558    1.0000 </r>
       <r>    7.1758    1.0000 </r>
       <r>    7.2481    1.0000 </r>
       <r>    7.3206    1.0000 </r>
       <r>    7.6557    1.0000 </r>
       <r>    7.6736    1.0000 </r>
       <r>    7.9259    0.9912 </r>
       <r>    7.9659    0.8926 </r>
       <r>    8.2874    0.0000 </r>
       <r>    8.3509    0.0000 </r>
       <r>    8.4659    0.0000 </r>
       <r>    8.5104    0.0000 </r>
       <r>    8.6084    0.0000 </r>
       <r>    8.7252    0.0000 </r>
       <r>    8.7730    0.0000 </r>
       <r>    8.8084    0.0000 </r>
       <r>    8.8239    0.0000 </r>
       <r>    8.8985    0.0000 </r>
       <r>    8.9402    0.0000 </r>
       <r>    9.0437    0.0000 </r>
       <r>    9.2643    0.0000 </r>
       <r>    9.2828    0.0000 </r>
       <r>    9.3071    0.0000 </r>
       <r>    9.3741    0.0000 </r>
       <r>    9.3999    0.0000 </r>
       <r>    9.4112    0.0000 </r>
       <r>    9.6238    0.0000 </r>
       <r>    9.7395    0.0000 </r>
       <r>    9.8310    0.0000 </r>
       <r>    9.8598    0.0000 </r>
       <r>   10.2255    0.0000 </r>
       <r>   10.2562    0.0000 </r>
       <r>   10.3287    0.0000 </r>
      </set>
      <set comment="kpoint 5">
       <r>   -3.0518    1.0000 </r>
       <r>   -1.8065    1.0000 </r>
       <r>   -0.9160    1.0000 </r>
       <r>   -0.8800    1.0000 </r>
       <r>   -0.7959    1.0000 </r>
       <r>   -0.6503    1.0000 </r>
       <r>    0.1547    1.0000 </r>
       <r>    0.3356    1.0000 </r>
       <r>    0.3631    1.0000 </r>
       <r>    0.4548    1.0000 </r>
       <r>    0.5868    1.0000 </r>
       <r>    1.3189    1.0000 </r>
       <r>    1.4184    1.0000 </r>
       <r>    1.4400    1.0000 </r>
       <r>    1.4982    1.0000 </r>
       <r>    2.2684    1.0000 </r>
       <r>    2.3440    1.0000 </r>
       <r>    2.4133    1.0000 </r>
       <r>    2.5152    1.0000 </r>
       <r>    2.5874    1.0000 </r>
       <r>    2.6511    1.0000 </r>
       <r>    2.6793    1.0000 </r>
       <r>    2.7353    1.0000 </r>
       <r>    3.8119    1.0000 </r>
       <r>    4.4772    1.0000 </r>
       <r>    4.5621    1.0000 </r>
       <r>    4.5823    1.0000 </r>
       <r>    4.6494    1.0000 </r>
       <r>    5.1832    1.0000 </r>
       <r>    5.1929    1.0000 </r>
       <r>    5.7762    1.0000 </r>
       <r>    5.8299    1.0000 </r>
       <r>    5.9255    1.0000 </r>
       <r>    6.0533    1.0000 </r>
       <r>    6.3212    1.0000 </r>
       <r>    6.3592    1.0000 </r>
       <r>    6.4852    1.0000 </r>
       <r>    6.5018    1.0000 </r>
       <r>    7.1541    1.0000 </r>
       <r>    7.1891    1.0000 </r>
       <r>    7.2512    1.0000 </r>
       <r>    7.3748    1.0000 </r>
       <r>    7.6016    1.0000 </r>
       <r>    7.6674    1.0000 </r>
       <r>    7.8027    1.0000 </r>
       <r>    7.9645    0.8998 </r>
       <r>    7.9984    0.6264 </r>
       <r>    8.1083    0.0027 </r>
       <r>    8.1405    0.0001 </r>
       <r>    8.2015    0.0000 </r>
       <r>    8.2380    0.0000 </r>
       <r>    8.3440    0.0000 </r>
       <r>    8.3864    0.0000 </r>
       <r>    8.4581    0.0000 </r>
       <r>    8.5298    0.0000 </r>
       <r>    8.5513    0.0000 </r>
       <r>    8.6537    0.0000 </r>
       <r>    8.7494    0.0000 </r>
       <r>    8.7949    0.0000 </r>
       <r>    9.7007    0.0000 </r>
       <r>    9.7569    0.0000 </r>
       <r>    9.8135    0.0000 </r>
       <r>    9.8609    0.0000 </r>
       <r>    9.8976    0.0000 </r>
       <r>    9.9508    0.0000 </r>
       <r>   10.0178    0.0000 </r>
       <r>   10.0949    0.0000 </r>
       <r>   10.1478    0.0000 </r>
       <r>   10.1954    0.0000 </r>
       <r>   10.2666    0.0000 </r>
       <r>   10.2814    0.0000 </r>
       <r>   10.3504    0.0000 </r>
      </set>
      <set comment="kpoint 6">
       <r>   -3.0517    1.0000 </r>
       <r>   -1.8102    1.0000 </r>
       <r>   -0.9100    1.0000 </r>
       <r>   -0.8496    1.0000 </r>
[...]
       <r>    2.6854    1.0000 </r>
       <r>    2.7779    1.0000 </r>
       <r>    2.8345    1.0000 </r>
       <r>    2.9369    1.0000 </r>
       <r>    3.0540    1.0000 </r>
       <r>    3.0935    1.0000 </r>
       <r>    3.1297    1.0000 </r>
       <r>    3.2397    1.0000 </r>
       <r>    3.2619    1.0000 </r>
       <r>    3.3152    1.0000 </r>
       <r>    3.3552    1.0000 </r>
       <r>    3.4042    1.0000 </r>
       <r>    3.4746    1.0000 </r>
       <r>    3.5867    1.0000 </r>
       <r>    3.6668    1.0000 </r>
       <r>    3.7712    1.0000 </r>
       <r>    6.3490    1.0000 </r>
       <r>    6.3872    1.0000 </r>
       <r>    6.4701    1.0000 </r>
       <r>    6.6189    1.0000 </r>
       <r>    6.6622    1.0000 </r>
       <r>    6.7371    1.0000 </r>
       <r>    7.0131    1.0000 </r>
       <r>    7.0479    1.0000 </r>
       <r>    7.0854    1.0000 </r>
       <r>    7.1373    1.0000 </r>
       <r>    7.1535    1.0000 </r>
       <r>    7.1956    1.0000 </r>
       <r>    7.2795    1.0000 </r>
       <r>    7.3579    1.0000 </r>
       <r>    7.4034    1.0000 </r>
       <r>    7.4489    1.0000 </r>
       <r>    7.4722    1.0000 </r>
       <r>    7.5120    1.0000 </r>
       <r>    7.7613    1.0000 </r>
       <r>    7.8448    1.0000 </r>
       <r>    7.9123    0.9971 </r>
       <r>    8.0549    0.1010 </r>
       <r>    8.0954    0.0077 </r>
       <r>    8.1982    0.0000 </r>
       <r>   10.3466    0.0000 </r>
       <r>   10.7485    0.0000 </r>
       <r>   10.7954    0.0000 </r>
       <r>   10.8367    0.0000 </r>
       <r>   10.8997    0.0000 </r>
       <r>   10.9648    0.0000 </r>
       <r>   10.9925    0.0000 </r>
       <r>   11.0311    0.0000 </r>
       <r>   11.0786    0.0000 </r>
       <r>   11.1309    0.0000 </r>
       <r>   11.1715    0.0000 </r>
       <r>   11.2007    0.0000 </r>
       <r>   11.2164    0.0000 </r>
       <r>   11.3546    0.0000 </r>
       <r>   11.3903    0.0000 </r>
       <r>   11.4318    0.0000 </r>
      </set>
     </set>
    </set>
   </array>
  </eigenvalues>
  <separator name="orbital magnetization" >
   <v name="MAGDIPOLOUT">      0.00000000      0.00000000      0.00000000</v>
  </separator>
  <dos>
   <i name="efermi">      8.00974478 </i>
   <total>
    <array>
     <dimension dim="1">gridpoints</dimension>
     <dimension dim="2">spin</dimension>
     <field>energy</field>
     <field>total</field>
     <field>integrated</field>
     <set>
      <set comment="spin 1">
       <r>    -3.9126     0.0000     0.0000 </r>
       <r>    -3.8576     0.0000     0.0000 </r>
       <r>    -3.8027     0.0000     0.0000 </r>
       <r>    -3.7477     0.0000     0.0000 </r>
       <r>    -3.6927     0.0000     0.0000 </r>
       <r>    -3.6378     0.0000     0.0000 </r>
       <r>    -3.5828     0.0000     0.0000 </r>
       <r>    -3.5278     0.0000     0.0000 </r>
       <r>    -3.4729     0.0000     0.0000 </r>
       <r>    -3.4179     0.0000     0.0000 </r>
       <r>    -3.3629     0.0000     0.0000 </r>
       <r>    -3.3080     0.0000     0.0000 </r>
       <r>    -3.2530     0.0004     0.0000 </r>
       <r>    -3.1980     0.0223     0.0012 </r>
       <r>    -3.1431     0.2471     0.0148 </r>
       <r>    -3.0881     0.7315     0.0550 </r>
       <r>    -3.0331     1.1697     0.1193 </r>
       <r>    -2.9782     1.5306     0.2035 </r>
       <r>    -2.9232     1.5298     0.2876 </r>
       <r>    -2.8682     2.1404     0.4052 </r>
       <r>    -2.8133     2.0841     0.5198 </r>
       <r>    -2.7583     2.3136     0.6469 </r>
       <r>    -2.7033     2.1684     0.7661 </r>
       <r>    -2.6483     3.0159     0.9319 </r>
       <r>    -2.5934     3.0696     1.1006 </r>
       <r>    -2.5384     2.5872     1.2428 </r>
       <r>    -2.4834     2.2846     1.3684 </r>
       <r>    -2.4285     3.5963     1.5661 </r>
       <r>    -2.3735     3.5927     1.7636 </r>
       <r>    -2.3185     3.5573     1.9591 </r>
       <r>    -2.2636     2.8390     2.1152 </r>
       <r>    -2.2086     3.6985     2.3185 </r>
       <r>    -2.1536     3.8906     2.5323 </r>
       <r>    -2.0987     3.7558     2.7388 </r>
       <r>    -2.0437     4.2034     2.9698 </r>
       <r>    -1.9887     4.5103     3.2178 </r>
       <r>    -1.9338     4.1386     3.4452 </r>
       <r>    -1.8788     3.3806     3.6311 </r>
       <r>    -1.8238     3.2684     3.8107 </r>
       <r>    -1.7689     4.2761     4.0458 </r>
       <r>    -1.7139     5.6760     4.3578 </r>
       <r>    -1.6589     5.4003     4.6546 </r>
       <r>    -1.6040     4.3299     4.8926 </r>
       <r>    -1.5490     3.9704     5.1109 </r>
       <r>    -1.4940     4.5304     5.3599 </r>
       <r>    -1.4391     4.5270     5.6087 </r>
       <r>    -1.3841     5.0765     5.8878 </r>
       <r>    -1.3291     6.0919     6.2226 </r>
       <r>    -1.2742     5.2549     6.5115 </r>
       <r>    -1.2192     4.2170     6.7433 </r>
       <r>    -1.1642     4.4899     6.9901 </r>
       <r>    -1.1093     6.1060     7.3257 </r>
       <r>    -1.0543     6.4463     7.6800 </r>
       <r>    -0.9993     5.3026     7.9715 </r>
       <r>    -0.9444     4.4795     8.2177 </r>
       <r>    -0.8894     4.7868     8.4809 </r>
       <r>    -0.8344     5.7237     8.7955 </r>
       <r>    -0.7794     6.2375     9.1383 </r>
       <r>    -0.7245     7.2117     9.5347 </r>
       <r>    -0.6695     7.0293     9.9211 </r>
       <r>    -0.6145     5.1855    10.2062 </r>
       <r>    -0.5596     5.1987    10.4919 </r>
       <r>    -0.5046     4.3711    10.7322 </r>
       <r>    -0.4496     6.0767    11.0662 </r>
       <r>    -0.3947     7.6259    11.4854 </r>
       <r>    -0.3397     7.3426    11.8890 </r>
       <r>    -0.2847     6.8989    12.2682 </r>
       <r>    -0.2298     5.7764    12.5857 </r>
       <r>    -0.1748     6.1244    12.9224 </r>
       <r>    -0.1198     6.3080    13.2691 </r>
       <r>    -0.0649     6.1132    13.6051 </r>
       <r>    -0.0099     7.1284    13.9970 </r>
       <r>     0.0451     7.1774    14.3915 </r>
       <r>     0.1000     6.5378    14.7509 </r>
       <r>     0.1550     6.4281    15.1042 </r>
       <r>     0.2100     7.2721    15.5039 </r>
       <r>     0.2649     7.1201    15.8953 </r>
       <r>     0.3199     6.5235    16.2539 </r>
       <r>     0.3749     6.9575    16.6363 </r>
       <r>     0.4298     7.1668    17.0303 </r>
       <r>     0.4848     7.9098    17.4651 </r>
       <r>     0.5398     7.4299    17.8735 </r>
       <r>     0.5947     7.3617    18.2781 </r>
       <r>     0.6497     6.7073    18.6468 </r>
       <r>     0.7047     7.0239    19.0329 </r>
       <r>     0.7596     7.0743    19.4217 </r>
       <r>     0.8146     6.4449    19.7760 </r>
       <r>     0.8696     7.5080    20.1887 </r>
       <r>     0.9245     8.1155    20.6348 </r>
       <r>     0.9795     8.2423    21.0878 </r>
       <r>     1.0345     9.2557    21.5966 </r>
       <r>     1.0895     8.8848    22.0850 </r>
       <r>     1.1444     6.7977    22.4586 </r>
       <r>     1.1994     6.9000    22.8379 </r>
       <r>     1.2544     7.4260    23.2461 </r>
       <r>     1.3093     7.6724    23.6678 </r>
       <r>     1.3643     8.9990    24.1625 </r>
       <r>     1.4193     7.9391    24.5989 </r>
       <r>     1.4742     6.8449    24.9751 </r>
       <r>     1.5292     8.7871    25.4581 </r>
       <r>     1.5842     9.8848    26.0015 </r>
       <r>     1.6391     8.6071    26.4746 </r>
       <r>     1.6941     7.1127    26.8656 </r>
       <r>     1.7491     6.7560    27.2369 </r>
       <r>     1.8040     9.6472    27.7672 </r>
       <r>     1.8590    10.1162    28.3233 </r>
       <r>     1.9140     9.3232    28.8357 </r>
       <r>     1.9689    10.1933    29.3960 </r>
       <r>     2.0239     7.9524    29.8332 </r>
       <r>     2.0789     6.5289    30.1920 </r>
       <r>     2.1338     7.1076    30.5827 </r>
       <r>     2.1888     8.8553    31.0695 </r>
       <r>     2.2438     9.7604    31.6060 </r>
       <r>     2.2987     9.9998    32.1557 </r>
       <r>     2.3537     8.7732    32.6379 </r>
       <r>     2.4087     7.4277    33.0462 </r>
       <r>     2.4636    10.4905    33.6228 </r>
       <r>     2.5186    12.0500    34.2852 </r>
       <r>     2.5736     8.9912    34.7794 </r>
       <r>     2.6285     8.4248    35.2425 </r>
       <r>     2.6835     9.8458    35.7837 </r>
       <r>     2.7385     8.9582    36.2761 </r>
       <r>     2.7934     8.3494    36.7351 </r>
       <r>     2.8484     9.2011    37.2408 </r>
       <r>     2.9034     8.9285    37.7316 </r>
       <r>     2.9584     8.0569    38.1745 </r>
       <r>     3.0133     9.1103    38.6752 </r>
       <r>     3.0683    11.1555    39.2884 </r>
       <r>     3.1233    11.8279    39.9386 </r>
       <r>     3.1782    10.2175    40.5002 </r>
       <r>     3.2332    10.7871    41.0932 </r>
       <r>     3.2882    11.1319    41.7050 </r>
       <r>     3.3431     9.1861    42.2100 </r>
       <r>     3.3981     8.3077    42.6666 </r>
       <r>     3.4531     8.5618    43.1373 </r>
       <r>     3.5080    10.2483    43.7006 </r>
       <r>     3.5630    11.7089    44.3442 </r>
       <r>     3.6180    10.3834    44.9149 </r>
       <r>     3.6729    11.0631    45.5231 </r>
       <r>     3.7279    10.1947    46.0834 </r>
       <r>     3.7829     8.8490    46.5698 </r>
       <r>     3.8378     8.1513    47.0179 </r>
       <r>     3.8928     9.9901    47.5670 </r>
       <r>     3.9478    12.5419    48.2564 </r>
       <r>     4.0027    11.6670    48.8977 </r>
       <r>     4.0577    11.0264    49.5038 </r>
       <r>     4.1127    10.5711    50.0849 </r>
       <r>     4.1676    10.1197    50.6412 </r>
       <r>     4.2226    10.9745    51.2444 </r>
       <r>     4.2776    11.0559    51.8521 </r>
       <r>     4.3325    12.7856    52.5549 </r>
       <r>     4.3875    11.5620    53.1905 </r>
       <r>     4.4425     9.4491    53.7098 </r>
       <r>     4.4974     9.4004    54.2266 </r>
       <r>     4.5524     8.9417    54.7181 </r>
       <r>     4.6074    10.3469    55.2868 </r>
       <r>     4.6624    10.9234    55.8872 </r>
       <r>     4.7173    12.4750    56.5730 </r>
       <r>     4.7723    13.5944    57.3202 </r>
       <r>     4.8273    12.2924    57.9959 </r>
       <r>     4.8822    13.1960    58.7213 </r>
       <r>     4.9372    12.7818    59.4238 </r>
       <r>     4.9922    10.9343    60.0249 </r>
       <r>     5.0471     9.8864    60.5683 </r>
       <r>     5.1021    11.5065    61.2008 </r>
       <r>     5.1571    12.1813    61.8704 </r>
       <r>     5.2120    12.1014    62.5356 </r>
       <r>     5.2670    13.0080    63.2506 </r>
       <r>     5.3220    11.9741    63.9088 </r>
       <r>     5.3769    12.5327    64.5977 </r>
       <r>     5.4319    11.4070    65.2247 </r>
       <r>     5.4869    11.0018    65.8294 </r>
       <r>     5.5418    12.2601    66.5033 </r>
       <r>     5.5968    13.5849    67.2501 </r>
       <r>     5.6518    12.1755    67.9193 </r>
       <r>     5.7067    11.5504    68.5542 </r>
       <r>     5.7617    11.6106    69.1924 </r>
       <r>     5.8167     9.7858    69.7303 </r>
       <r>     5.8716    10.9452    70.3320 </r>
       <r>     5.9266    13.2144    71.0583 </r>
       <r>     5.9816    10.0932    71.6131 </r>
       <r>     6.0365     9.8439    72.1542 </r>
       <r>     6.0915    11.5721    72.7903 </r>
       <r>     6.1465    12.6925    73.4880 </r>
       <r>     6.2014    11.7532    74.1340 </r>
       <r>     6.2564    10.7845    74.7268 </r>
       <r>     6.3114    11.4729    75.3575 </r>
       <r>     6.3663    11.8889    76.0110 </r>
       <r>     6.4213    12.3086    76.6876 </r>
       <r>     6.4763    12.1326    77.3545 </r>
       <r>     6.5313    10.9984    77.9590 </r>
       <r>     6.5862    10.5592    78.5394 </r>
       <r>     6.6412    10.6343    79.1240 </r>
       <r>     6.6962    11.4152    79.7514 </r>
       <r>     6.7511    11.5194    80.3846 </r>
       <r>     6.8061    11.2240    81.0016 </r>
       <r>     6.8611    12.7159    81.7006 </r>
       <r>     6.9160    13.6138    82.4489 </r>
       <r>     6.9710    13.7485    83.2046 </r>
       <r>     7.0260    14.3515    83.9935 </r>
       <r>     7.0809    13.1800    84.7179 </r>
       <r>     7.1359    11.1314    85.3298 </r>
       <r>     7.1909    12.0906    85.9944 </r>
       <r>     7.2458    11.4954    86.6263 </r>
       <r>     7.3008    11.7491    87.2721 </r>
       <r>     7.3558    13.5622    88.0176 </r>
       <r>     7.4107    12.1041    88.6829 </r>
       <r>     7.4657    10.5361    89.2621 </r>
       <r>     7.5207    12.6241    89.9560 </r>
       <r>     7.5756    12.6686    90.6523 </r>
       <r>     7.6306    12.6104    91.3455 </r>
       <r>     7.6856    13.3847    92.0812 </r>
       <r>     7.7405    12.2216    92.7530 </r>
       <r>     7.7955    10.0135    93.3034 </r>
       <r>     7.8505    10.3506    93.8724 </r>
       <r>     7.9054    13.4154    94.6098 </r>
       <r>     7.9604    13.5315    95.3536 </r>
       <r>     8.0154    13.0696    96.0720 </r>
       <r>     8.0703    12.9259    96.7825 </r>
       <r>     8.1253    14.4149    97.5749 </r>
       <r>     8.1803    13.9017    98.3390 </r>
       <r>     8.2352    12.6589    99.0348 </r>
       <r>     8.2902    13.9761    99.8031 </r>
       <r>     8.3452    15.5394   100.6572 </r>
       <r>     8.4002    15.3693   101.5020 </r>
       <r>     8.4551    13.7646   102.2586 </r>
       <r>     8.5101    13.0268   102.9747 </r>
       <r>     8.5651    12.5495   103.6645 </r>
       <r>     8.6200    10.1697   104.2235 </r>
       <r>     8.6750    11.2880   104.8440 </r>
       <r>     8.7300    12.8173   105.5485 </r>
       <r>     8.7849    12.3380   106.2267 </r>
       <r>     8.8399    12.7131   106.9255 </r>
       <r>     8.8949    12.8540   107.6321 </r>
       <r>     8.9498    14.4008   108.4237 </r>
       <r>     9.0048    16.0640   109.3067 </r>
       <r>     9.0598    15.5384   110.1608 </r>
       <r>     9.1147    14.8927   110.9794 </r>
       <r>     9.1697    15.7948   111.8476 </r>
       <r>     9.2247    14.9379   112.6687 </r>
       <r>     9.2796    13.3206   113.4009 </r>
       <r>     9.3346    12.3732   114.0810 </r>
       <r>     9.3896    12.1291   114.7477 </r>
       <r>     9.4445    12.3297   115.4255 </r>
       <r>     9.4995    12.0089   116.0856 </r>
       <r>     9.5545    12.1843   116.7553 </r>
       <r>     9.6094    13.5715   117.5013 </r>
       <r>     9.6644    13.6800   118.2533 </r>
       <r>     9.7194    14.1861   119.0330 </r>
       <r>     9.7743    15.6829   119.8951 </r>
       <r>     9.8293    16.4530   120.7995 </r>
       <r>     9.8843    15.6773   121.6612 </r>
       <r>     9.9392    13.9807   122.4297 </r>
       <r>     9.9942    15.2964   123.2705 </r>
       <r>    10.0492    15.6329   124.1298 </r>
       <r>    10.1041    13.1480   124.8525 </r>
       <r>    10.1591    11.3389   125.4758 </r>
       <r>    10.2141    13.6486   126.2260 </r>
       <r>    10.2691    14.6600   127.0319 </r>
       <r>    10.3240    13.7262   127.7864 </r>
       <r>    10.3790    12.7675   128.4882 </r>
       <r>    10.4340    15.3631   129.3326 </r>
       <r>    10.4889    17.1337   130.2744 </r>
       <r>    10.5439    14.9689   131.0972 </r>
       <r>    10.5989    15.4642   131.9473 </r>
       <r>    10.6538    15.2684   132.7865 </r>
       <r>    10.7088    14.8889   133.6049 </r>
       <r>    10.7638    14.7696   134.4168 </r>
       <r>    10.8187    12.8820   135.1249 </r>
       <r>    10.8737    13.7697   135.8818 </r>
       <r>    10.9287    13.9695   136.6496 </r>
       <r>    10.9836    12.9095   137.3592 </r>
       <r>    11.0386    12.7781   138.0616 </r>
       <r>    11.0936    12.7104   138.7603 </r>
       <r>    11.1485    12.3043   139.4366 </r>
       <r>    11.2035    10.6031   140.0194 </r>
       <r>    11.2585    11.0128   140.6248 </r>
       <r>    11.3134    12.0551   141.2874 </r>
       <r>    11.3684    11.7351   141.9325 </r>
       <r>    11.4234    10.7243   142.5220 </r>
       <r>    11.4783     7.3053   142.9235 </r>
       <r>    11.5333     4.7782   143.1862 </r>
       <r>    11.5883     5.2747   143.4761 </r>
       <r>    11.6432     4.9000   143.7455 </r>
       <r>    11.6982     2.8112   143.9000 </r>
       <r>    11.7532     1.2788   143.9703 </r>
       <r>    11.8081     0.4320   143.9940 </r>
       <r>    11.8631     0.0921   143.9991 </r>
       <r>    11.9181     0.0161   144.0000 </r>
       <r>    11.9731     0.0005   144.0000 </r>
       <r>    12.0280     0.0000   144.0000 </r>
       <r>    12.0830     0.0000   144.0000 </r>
       <r>    12.1380     0.0000   144.0000 </r>
       <r>    12.1929     0.0000   144.0000 </r>
       <r>    12.2479     0.0000   144.0000 </r>
       <r>    12.3029     0.0000   144.0000 </r>
       <r>    12.3578     0.0000   144.0000 </r>
       <r>    12.4128     0.0000   144.0000 </r>
       <r>    12.4678     0.0000   144.0000 </r>
       <r>    12.5227     0.0000   144.0000 </r>
       <r>    12.5777     0.0000   144.0000 </r>
      </set>
     </set>
    </array>
   </total>
  </dos>
 </calculation>
 <structure name="finalpos" >
  <crystal>
   <varray name="basis" >
    <v>       8.07809510       0.00000000       0.00000000 </v>
    <v>       0.00000000       8.07809510       0.00000000 </v>
    <v>       0.00000000       0.00000000       8.07809510 </v>
   </varray>
   <i name="volume">    527.14110776 </i>
   <varray name="rec_basis" >
    <v>       0.12379156       0.00000000       0.00000000 </v>
    <v>       0.00000000       0.12379156       0.00000000 </v>
    <v>       0.00000000       0.00000000       0.12379156 </v>
   </varray>
  </crystal>
  <varray name="positions" >
   <v>       0.98588962       0.99093003       0.99445209 </v>
   <v>       0.99918943       0.25669482       0.25901302 </v>
   <v>       0.23490487       0.00187551       0.23663742 </v>
   <v>       0.23755520       0.25017208       0.99511829 </v>
   <v>       0.99473468       0.99537668       0.49773862 </v>
   <v>       0.01700319       0.25276165       0.73602379 </v>
   <v>       0.23440058       0.00068822       0.74248338 </v>
   <v>       0.27664895       0.22858355       0.48921912 </v>
   <v>       0.00012115       0.50628885       0.00192916 </v>
   <v>       0.02050125       0.73234079       0.26695160 </v>
   <v>       0.25662359       0.48914093       0.24935130 </v>
   <v>       0.24358378       0.75040747       0.98629922 </v>
   <v>       0.01643190       0.51359946       0.51660052 </v>
   <v>       0.98879043       0.75815039       0.75634485 </v>
   <v>       0.25006333       0.50515051       0.75994041 </v>
   <v>       0.25613991       0.75692448       0.48849563 </v>
   <v>       0.49667808       0.01583187       0.99710339 </v>
   <v>       0.49960933       0.24836594       0.24790321 </v>
   <v>       0.77686105       0.99924045       0.25117638 </v>
   <v>       0.75864505       0.25350470       0.98850618 </v>
   <v>       0.50708865       0.98394608       0.51229137 </v>
   <v>       0.49480282       0.24551833       0.74732431 </v>
   <v>       0.72968101       0.00377742       0.75377964 </v>
   <v>       0.73497129       0.25766878       0.51085182 </v>
   <v>       0.49985365       0.48680231       0.98818800 </v>
   <v>       0.50556395       0.75258882       0.24715070 </v>
   <v>       0.73252269       0.48390082       0.22888392 </v>
   <v>       0.73515435       0.73838909       0.99605835 </v>
   <v>       0.51115179       0.51948830       0.48584222 </v>
   <v>       0.48871719       0.75159436       0.74862725 </v>
   <v>       0.75525764       0.49837084       0.73531818 </v>
   <v>       0.75147566       0.73929853       0.49379861 </v>
  </varray>
 </structure>
</modeling>
