<?xml version="1.0" encoding="ISO-8859-1"?>
<modeling>
 <generator>
  <i name="program" type="string">vasp </i>
  <i name="version" type="string">6.2.0  </i>
  <i name="subversion" type="string">18Jan21 (build Mar 25 2021 14:28:09) complex                          parallel </i>
  <i name="platform" type="string">LinuxGNU </i>
  <i name="date" type="string">2021 12 20 </i>
  <i name="time" type="string">09:53:26 </i>
 </generator>
 <incar>
  <i type="string" name="SYSTEM">benzene</i>
  <i type="int" name="ISTART">     0</i>
  <i type="string" name="PREC">Accurate</i>
  <i type="string" name="ALGO">Normal</i>
  <i type="int" name="NELM">   200</i>
  <i type="int" name="IBRION">    -1</i>
  <i name="EDIFF">      0.00000100</i>
  <i type="int" name="NSW">     0</i>
  <i name="ENCUT">    600.00000000</i>
  <i type="logical" name="LREAL"> F  </i>
  <i type="int" name="ISMEAR">     0</i>
  <i name="SIGMA">      0.05000000</i>
  <i type="logical" name="LWAVE"> F  </i>
  <i type="logical" name="LCHARG"> T  </i>
  <i type="string" name="GGA">PE</i>
 </incar>
 <primitive_cell>
  <structure name="primitive_cell" >
   <crystal>
    <varray name="basis" >
     <v>      10.58354422       0.00000000       0.00000000 </v>
     <v>       0.00000000      10.58354422       0.00000000 </v>
     <v>       0.00000000       0.00000000      10.58354422 </v>
    </varray>
    <i name="volume">   1185.47769178 </i>
    <varray name="rec_basis" >
     <v>       0.09448631       0.00000000       0.00000000 </v>
     <v>       0.00000000       0.09448631       0.00000000 </v>
     <v>       0.00000000       0.00000000       0.09448631 </v>
    </varray>
   </crystal>
   <varray name="positions" >
    <v>       0.49902620       0.63552660       0.50284970 </v>
    <v>       0.38900400       0.56841585       0.49448020 </v>
    <v>       0.38525025       0.43546415       0.50371490 </v>
    <v>       0.50377255       0.36594975       0.50789015 </v>
    <v>       0.61715855       0.43335870       0.49842935 </v>
    <v>       0.61744465       0.57085700       0.50780015 </v>
    <v>       0.49139105       0.73577675       0.50690810 </v>
    <v>       0.29626220       0.60861220       0.48625120 </v>
    <v>       0.29541630       0.38836340       0.50152915 </v>
    <v>       0.49166015       0.25903490       0.50694700 </v>
    <v>       0.70388650       0.37588355       0.48110130 </v>
    <v>       0.70972745       0.62275705       0.50209865 </v>
   </varray>
  </structure>
  <varray name="primitive_index" >
   <v type="int" >        1 </v>
   <v type="int" >        2 </v>
   <v type="int" >        3 </v>
   <v type="int" >        4 </v>
   <v type="int" >        5 </v>
   <v type="int" >        6 </v>
   <v type="int" >        7 </v>
   <v type="int" >        8 </v>
   <v type="int" >        9 </v>
   <v type="int" >       10 </v>
   <v type="int" >       11 </v>
   <v type="int" >       12 </v>
  </varray>
 </primitive_cell>
 <kpoints>
  <generation param="Gamma">
   <v type="int" name="divisions">       1        1        1 </v>
   <v name="usershift">      0.00000000       0.00000000       0.00000000 </v>
   <v name="genvec1">      1.00000000       0.00000000       0.00000000 </v>
   <v name="genvec2">      0.00000000       1.00000000       0.00000000 </v>
   <v name="genvec3">      0.00000000       0.00000000       1.00000000 </v>
   <v name="shift">      0.00000000       0.00000000       0.00000000 </v>
  </generation>
  <varray name="kpointlist" >
   <v>       0.00000000       0.00000000       0.00000000 </v>
  </varray>
  <varray name="weights" >
   <v>       1.00000000 </v>
  </varray>
 </kpoints>
 <parameters>
  <separator name="general" >
   <i type="string" name="SYSTEM">benzene</i>
   <i type="logical" name="LCOMPAT"> F  </i>
  </separator>
  <separator name="electronic" >
   <i type="string" name="PREC">accura</i>
   <i name="ENMAX">    600.00000000</i>
   <i name="ENAUG">    644.87300000</i>
   <i name="EDIFF">      0.00000100</i>
   <i type="int" name="IALGO">    38</i>
   <i type="int" name="IWAVPR">    10</i>
   <i type="int" name="NBANDS">    24</i>
   <i type="int" name="NBANDSLOW">    -1</i>
   <i type="int" name="NBANDSHIGH">    -1</i>
   <i name="NELECT">     30.00000000</i>
   <i type="int" name="TURBO">     0</i>
   <i type="int" name="IRESTART">     0</i>
   <i type="int" name="NREBOOT">     0</i>
   <i type="int" name="NMIN">     0</i>
   <i name="EREF">      0.00000000</i>
   <separator name="electronic smearing" >
    <i type="int" name="ISMEAR">     0</i>
    <i name="SIGMA">      0.05000000</i>
    <i name="KSPACING">      0.50000000</i>
    <i type="logical" name="KGAMMA"> T  </i>
    <i type="logical" name="KBLOWUP"> T  </i>
   </separator>
   <separator name="electronic projectors" >
    <i type="logical" name="LREAL"> F  </i>
    <v name="ROPT">      0.00000000      0.00000000</v>
    <i type="int" name="LMAXPAW">  -100</i>
    <i type="int" name="LMAXMIX">     2</i>
    <i type="logical" name="NLSPLINE"> F  </i>
   </separator>
   <separator name="electronic startup" >
    <i type="int" name="ISTART">     0</i>
    <i type="int" name="ICHARG">     2</i>
    <i type="int" name="INIWAV">     1</i>
   </separator>
   <separator name="electronic spin" >
    <i type="int" name="ISPIN">     1</i>
    <i type="logical" name="LNONCOLLINEAR"> F  </i>
    <v name="MAGMOM">      1.00000000      1.00000000      1.00000000      1.00000000      1.00000000      1.00000000      1.00000000      1.00000000      1.00000000      1.00000000      1.00000000      1.00000000</v>
    <i name="NUPDOWN">     -1.00000000</i>
    <i type="logical" name="LSORBIT"> F  </i>
    <v name="SAXIS">      0.00000000      0.00000000      1.00000000</v>
    <i type="logical" name="LSPIRAL"> F  </i>
    <v name="QSPIRAL">      0.00000000      0.00000000      0.00000000</v>
    <i type="logical" name="LZEROZ"> F  </i>
   </separator>
   <separator name="electronic exchange-correlation" >
    <i type="logical" name="LASPH"> F  </i>
    <i type="logical" name="LMETAGGA"> F  </i>
   </separator>
   <separator name="electronic convergence" >
    <i type="int" name="NELM">   200</i>
    <i type="int" name="NELMDL">    -5</i>
    <i type="int" name="NELMIN">     2</i>
    <i name="ENINI">    600.00000000</i>
    <separator name="electronic convergence detail" >
     <i type="logical" name="LDIAG"> T  </i>
     <i type="logical" name="LSUBROT"> F  </i>
     <i name="WEIMIN">      0.00000000</i>
     <i name="EBREAK">      0.00000001</i>
     <i name="DEPER">      0.30000000</i>
     <i type="int" name="NRMM">     4</i>
     <i name="TIME">      0.40000000</i>
    </separator>
   </separator>
   <separator name="electronic mixer" >
    <i name="AMIX">      0.40000000</i>
    <i name="BMIX">      1.00000000</i>
    <i name="AMIN">      0.10000000</i>
    <i name="AMIX_MAG">      1.60000000</i>
    <i name="BMIX_MAG">      1.00000000</i>
    <separator name="electronic mixer details" >
     <i type="int" name="IMIX">     4</i>
     <i type="logical" name="MIXFIRST"> F  </i>
     <i type="int" name="MAXMIX">   -45</i>
     <i name="WC">    100.00000000</i>
     <i type="int" name="INIMIX">     1</i>
     <i type="int" name="MIXPRE">     1</i>
     <i type="int" name="MREMOVE">     5</i>
    </separator>
   </separator>
   <separator name="electronic dipolcorrection" >
    <i type="logical" name="LDIPOL"> F  </i>
    <i type="logical" name="LMONO"> F  </i>
    <i type="int" name="IDIPOL">     0</i>
    <i name="EPSILON">      1.00000000</i>
    <v name="DIPOL">   -100.00000000   -100.00000000   -100.00000000</v>
    <i name="EFIELD">      0.00000000</i>
   </separator>
  </separator>
  <separator name="grids" >
   <i type="int" name="NGX">    90</i>
   <i type="int" name="NGY">    90</i>
   <i type="int" name="NGZ">    90</i>
   <i type="int" name="NGXF">   180</i>
   <i type="int" name="NGYF">   180</i>
   <i type="int" name="NGZF">   180</i>
   <i type="logical" name="ADDGRID"> F  </i>
  </separator>
  <separator name="ionic" >
   <i type="int" name="NSW">     0</i>
   <i type="int" name="IBRION">    -1</i>
   <i type="int" name="MDALGO">     0</i>
   <i type="int" name="ISIF">     2</i>
   <i name="PSTRESS">      0.00000000</i>
   <i name="EDIFFG">      0.00001000</i>
   <i type="int" name="NFREE">     0</i>
   <i name="POTIM">      0.50000000</i>
   <i name="SMASS">     -3.00000000</i>
   <i name="SCALEE">      1.00000000</i>
  </separator>
  <separator name="ionic md" >
   <i name="TEBEG">      0.00010000</i>
   <i name="TEEND">      0.00010000</i>
   <i type="int" name="NBLOCK">     1</i>
   <i type="int" name="KBLOCK">     1</i>
   <i type="int" name="NPACO">   256</i>
   <i name="APACO">     16.00000000</i>
  </separator>
  <separator name="symmetry" >
   <i type="int" name="ISYM">     2</i>
   <i name="SYMPREC">      0.00001000</i>
  </separator>
  <separator name="dos" >
   <i type="int" name="LORBIT">     0</i>
   <v name="RWIGS">     -1.00000000     -1.00000000</v>
   <i type="int" name="NEDOS">   301</i>
   <i name="EMIN">     10.00000000</i>
   <i name="EMAX">    -10.00000000</i>
   <i name="EFERMI">      0.00000000</i>
  </separator>
  <separator name="writing" >
   <i type="int" name="NWRITE">     2</i>
   <i type="logical" name="LWAVE"> F  </i>
   <i type="logical" name="LDOWNSAMPLE"> F  </i>
   <i type="logical" name="LCHARG"> T  </i>
   <i type="logical" name="LPARD"> F  </i>
   <i type="logical" name="LVTOT"> F  </i>
   <i type="logical" name="LVHAR"> F  </i>
   <i type="logical" name="LELF"> F  </i>
   <i type="logical" name="LOPTICS"> F  </i>
   <v name="STM">      0.00000000      0.00000000      0.00000000      0.00000000      0.00000000      0.00000000      0.00000000</v>
  </separator>
  <separator name="performance" >
   <i type="int" name="NPAR">     4</i>
   <i type="int" name="NSIM">     4</i>
   <i type="int" name="NBLK">    -1</i>
   <i type="logical" name="LPLANE"> T  </i>
   <i type="logical" name="LSCALAPACK"> T  </i>
   <i type="logical" name="LSCAAWARE"> F  </i>
   <i type="logical" name="LSCALU"> F  </i>
   <i type="logical" name="LASYNC"> F  </i>
   <i type="logical" name="LORBITALREAL"> F  </i>
  </separator>
  <separator name="miscellaneous" >
   <i type="int" name="IDIOT">     3</i>
   <i type="int" name="PHON_NSTRUCT">    -1</i>
   <i type="logical" name="LMUSIC"> F  </i>
   <v name="POMASS">     12.01100000      1.00000000</v>
   <v name="DARWINR">      0.00000000      0.00000000</v>
   <v name="DARWINV">      1.00000000      1.00000000</v>
   <i type="logical" name="LCORR"> T  </i>
  </separator>
  <i type="logical" name="GGA_COMPAT"> T  </i>
  <i type="logical" name="LBERRY"> F  </i>
  <i type="int" name="ICORELEVEL">     0</i>
  <i type="logical" name="LDAU"> F  </i>
  <i type="int" name="I_CONSTRAINED_M">     0</i>
  <separator name="electronic exchange-correlation" >
   <i type="string" name="GGA">PE</i>
   <i type="int" name="VOSKOWN">     0</i>
   <i type="logical" name="LHFCALC"> F  </i>
   <i type="string" name="PRECFOCK"></i>
   <i type="logical" name="LSYMGRAD"> F  </i>
   <i type="logical" name="LHFONE"> F  </i>
   <i type="logical" name="LRHFCALC"> F  </i>
   <i type="logical" name="LTHOMAS"> F  </i>
   <i type="logical" name="LMODELHF"> F  </i>
   <i type="logical" name="LFOCKACE"> F  </i>
   <i name="ENCUT4O">     -1.00000000</i>
   <i type="int" name="EXXOEP">     0</i>
   <i type="int" name="FOURORBIT">     0</i>
   <i name="AEXX">      0.00000000</i>
   <i name="HFALPHA">      0.00000000</i>
   <i name="MCALPHA">      0.00000000</i>
   <i name="ALDAX">      1.00000000</i>
   <i name="AGGAX">      1.00000000</i>
   <i name="ALDAC">      1.00000000</i>
   <i name="AGGAC">      1.00000000</i>
   <i type="int" name="NKREDX">     1</i>
   <i type="int" name="NKREDY">     1</i>
   <i type="int" name="NKREDZ">     1</i>
   <i type="logical" name="SHIFTRED"> F  </i>
   <i type="logical" name="ODDONLY"> F  </i>
   <i type="logical" name="EVENONLY"> F  </i>
   <i type="int" name="LMAXFOCK">     0</i>
   <i type="int" name="NMAXFOCKAE">     0</i>
   <i type="logical" name="LFOCKAEDFT"> F  </i>
   <i name="HFSCREEN">      0.00000000</i>
   <i name="HFSCREENC">      0.00000000</i>
   <i type="int" name="NBANDSGWLOW">     0</i>
  </separator>
  <separator name="vdW DFT" >
   <i type="logical" name="LUSE_VDW"> F  </i>
   <i name="Zab_VDW">     -0.84910000</i>
   <i name="PARAM1">      0.12340000</i>
   <i name="PARAM2">      1.00000000</i>
   <i name="PARAM3">      0.00000000</i>
  </separator>
  <separator name="model GW" >
   <i type="int" name="MODEL_GW">     0</i>
   <i name="MODEL_EPS0">     59.27388459</i>
   <i name="MODEL_ALPHA">      1.00000000</i>
  </separator>
  <separator name="linear response parameters" >
   <i type="logical" name="LEPSILON"> F  </i>
   <i type="logical" name="LRPA"> F  </i>
   <i type="logical" name="LNABLA"> F  </i>
   <i type="logical" name="LVEL"> F  </i>
   <i type="int" name="KINTER">     0</i>
   <i name="CSHIFT">      0.10000000</i>
   <i name="OMEGAMAX">     -1.00000000</i>
   <i name="DEG_THRESHOLD">      0.00200000</i>
   <i name="RTIME">     -0.10000000</i>
   <i name="WPLASMAI">      0.00000000</i>
   <v name="DFIELD">      0.00000000      0.00000000      0.00000000</v>
   <v name="WPLASMA">      0.00000000      0.00000000      0.00000000      0.00000000      0.00000000      0.00000000      0.00000000      0.00000000      0.00000000</v>
  </separator>
  <separator name="orbital magnetization" >
   <i type="logical" name="NUCIND"> F  </i>
   <v name="MAGPOS">      0.00000000      0.00000000      0.00000000</v>
   <i type="logical" name="LNICSALL"> T  </i>
   <i type="logical" name="ORBITALMAG"> F  </i>
   <i type="logical" name="LMAGBLOCH"> F  </i>
   <i type="logical" name="LCHIMAG"> F  </i>
   <i type="logical" name="LGAUGE"> T  </i>
   <i type="int" name="MAGATOM">     0</i>
   <v name="MAGDIPOL">      0.00000000      0.00000000      0.00000000</v>
   <v name="AVECCONST">      0.00000000      0.00000000      0.00000000</v>
  </separator>
  <separator name="response functions" >
   <i type="logical" name="LFINITE_TEMPERATURE"> F  </i>
   <i type="logical" name="LADDER"> F  </i>
   <i type="logical" name="LRPAFORCE"> F  </i>
   <i type="logical" name="LFXC"> F  </i>
   <i type="logical" name="LHARTREE"> T  </i>
   <i type="int" name="IBSE">     0</i>
   <v type="int" name="KPOINT">    -1     0     0     0</v>
   <i type="logical" name="LTCTC"> F  </i>
   <i type="logical" name="LTCTE"> F  </i>
   <i type="logical" name="LTETE"> F  </i>
   <i type="logical" name="LTRIPLET"> F  </i>
   <i type="logical" name="LFXCEPS"> F  </i>
   <i type="logical" name="LFXHEG"> F  </i>
   <i type="int" name="NATURALO">     2</i>
   <i type="logical" name="LHOLEGF"> F  </i>
   <i type="logical" name="L2ORDER"> F  </i>
   <i type="logical" name="LDMP1"> F  </i>
   <i type="logical" name="LMP2LT"> F  </i>
   <i type="logical" name="LSMP2LT"> F  </i>
   <i type="logical" name="LGWLF"> F  </i>
   <i name="ENCUTGW">     -2.00000000</i>
   <i name="ENCUTGWSOFT">     -2.00000000</i>
   <i name="ENCUTLF">     -1.00000000</i>
   <i type="logical" name="LESF_SPLINES"> F  </i>
   <i type="int" name="LMAXMP2">    -1</i>
   <i name="SCISSOR">      0.00000000</i>
   <i type="int" name="NOMEGA">     0</i>
   <i type="int" name="NOMEGAR">     0</i>
   <i type="int" name="NBANDSGW">    -1</i>
   <i type="int" name="NBANDSO">    -1</i>
   <i type="int" name="NBANDSV">    -1</i>
   <i type="int" name="NELM">   200</i>
   <i type="int" name="NELMHF">     1</i>
   <i type="int" name="DIM">     3</i>
   <i type="int" name="IESPILON">     4</i>
   <i type="int" name="ANTIRES">     0</i>
   <i name="OMEGAMAX">    -30.00000000</i>
   <i name="OMEGAMIN">    -30.00000000</i>
   <i name="OMEGATL">   -200.00000000</i>
   <i type="int" name="OMEGAGRID">     0</i>
   <i name="CSHIFT">     -0.10000000</i>
   <i type="logical" name="LSELFENERGY"> F  </i>
   <i type="logical" name="LSPECTRAL"> F  </i>
   <i type="logical" name="LSPECTRALGW"> F  </i>
   <i type="logical" name="LSINGLES"> F  </i>
   <i type="logical" name="LFERMIGW"> F  </i>
   <i type="logical" name="ODDONLYGW"> F  </i>
   <i type="logical" name="EVENONLYGW"> F  </i>
   <i type="int" name="NKREDLFX">     1</i>
   <i type="int" name="NKREDLFY">     1</i>
   <i type="int" name="NKREDLFZ">     1</i>
   <i type="int" name="MAXMEM">  2800</i>
   <i type="int" name="TELESCOPE">     0</i>
   <i type="int" name="NTAUPAR">    -1</i>
   <i type="int" name="NOMEGAPAR">    -1</i>
   <i name="DAMP_NEWTON">      0.80000001</i>
   <i name="LAMBDA">      1.00000000</i>
  </separator>
  <separator name="External order field" >
   <i name="OFIELD_KAPPA">      0.00000000</i>
   <v name="OFIELD_K">      0.00000000      0.00000000      0.00000000</v>
   <i name="OFIELD_Q6_NEAR">      0.00000000</i>
   <i name="OFIELD_Q6_FAR">      0.00000000</i>
   <i name="OFIELD_A">      0.00000000</i>
  </separator>
 </parameters>
 <atominfo>
  <atoms>      12 </atoms>
  <types>       2 </types>
  <array name="atoms" >
   <dimension dim="1">ion</dimension>
   <field type="string">element</field>
   <field type="int">atomtype</field>
   <set>
    <rc><c>C </c><c>   1</c></rc>
    <rc><c>C </c><c>   1</c></rc>
    <rc><c>C </c><c>   1</c></rc>
    <rc><c>C </c><c>   1</c></rc>
    <rc><c>C </c><c>   1</c></rc>
    <rc><c>C </c><c>   1</c></rc>
    <rc><c>H </c><c>   2</c></rc>
    <rc><c>H </c><c>   2</c></rc>
    <rc><c>H </c><c>   2</c></rc>
    <rc><c>H </c><c>   2</c></rc>
    <rc><c>H </c><c>   2</c></rc>
    <rc><c>H </c><c>   2</c></rc>
   </set>
  </array>
  <array name="atomtypes" >
   <dimension dim="1">type</dimension>
   <field type="int">atomspertype</field>
   <field type="string">element</field>
   <field>mass</field>
   <field>valence</field>
   <field type="string">pseudopotential</field>
   <set>
    <rc><c>   6</c><c>C </c><c>     12.01100000</c><c>      4.00000000</c><c>  PAW_PBE C 08Apr2002                   </c></rc>
    <rc><c>   6</c><c>H </c><c>      1.00000000</c><c>      1.00000000</c><c>  PAW_PBE H 15Jun2001                   </c></rc>
   </set>
  </array>
 </atominfo>
 <structure name="initialpos" >
  <crystal>
   <varray name="basis" >
    <v>      10.58354422       0.00000000       0.00000000 </v>
    <v>       0.00000000      10.58354422       0.00000000 </v>
    <v>       0.00000000       0.00000000      10.58354422 </v>
   </varray>
   <i name="volume">   1185.47769178 </i>
   <varray name="rec_basis" >
    <v>       0.09448631       0.00000000       0.00000000 </v>
    <v>       0.00000000       0.09448631       0.00000000 </v>
    <v>       0.00000000       0.00000000       0.09448631 </v>
   </varray>
  </crystal>
  <varray name="positions" >
   <v>       0.49902620       0.63552660       0.50284970 </v>
   <v>       0.38900400       0.56841585       0.49448020 </v>
   <v>       0.38525025       0.43546415       0.50371490 </v>
   <v>       0.50377255       0.36594975       0.50789015 </v>
   <v>       0.61715855       0.43335870       0.49842935 </v>
   <v>       0.61744465       0.57085700       0.50780015 </v>
   <v>       0.49139105       0.73577675       0.50690810 </v>
   <v>       0.29626220       0.60861220       0.48625120 </v>
   <v>       0.29541630       0.38836340       0.50152915 </v>
   <v>       0.49166015       0.25903490       0.50694700 </v>
   <v>       0.70388650       0.37588355       0.48110130 </v>
   <v>       0.70972745       0.62275705       0.50209865 </v>
  </varray>
 </structure>
 <calculation>
  <scstep>
   <time name="dav">    0.22    0.22</time>
   <time name="total">    0.49    0.49</time>
   <energy>
    <i name="alphaZ">      3.48814018 </i>
    <i name="ewald">   1095.21994243 </i>
    <i name="hartreedc">  -1736.96387791 </i>
    <i name="XCdc">     90.85512939 </i>
    <i name="pawpsdc">    663.93644290 </i>
    <i name="pawaedc">   -667.40614445 </i>
    <i name="eentropy">     -0.00000000 </i>
    <i name="bandstr">   -194.74607026 </i>
    <i name="atom">    957.82965714 </i>
    <i name="e_fr_energy">    212.21321941 </i>
    <i name="e_wo_entrp">    212.21321941 </i>
    <i name="e_0_energy">    212.21321941 </i>
   </energy>
  </scstep>
  <scstep>
   <time name="dav">    0.26    0.26</time>
   <time name="total">    0.26    0.26</time>
   <energy>
    <i name="e_fr_energy">     -3.36924696 </i>
    <i name="e_wo_entrp">     -3.36924696 </i>
    <i name="e_0_energy">     -3.36924696 </i>
   </energy>
  </scstep>
  <scstep>
   <time name="dav">    0.22    0.22</time>
   <time name="total">    0.22    0.22</time>
   <energy>
    <i name="e_fr_energy">    -77.36847945 </i>
    <i name="e_wo_entrp">    -77.36847945 </i>
    <i name="e_0_energy">    -77.36847945 </i>
   </energy>
  </scstep>
  <scstep>
   <time name="dav">    0.20    0.20</time>
   <time name="total">    0.20    0.20</time>
   <energy>
    <i name="e_fr_energy">    -83.08601418 </i>
    <i name="e_wo_entrp">    -83.08601418 </i>
    <i name="e_0_energy">    -83.08601418 </i>
   </energy>
  </scstep>
  <scstep>
   <time name="dav">    0.24    0.24</time>
   <time name="total">    0.28    0.28</time>
   <energy>
    <i name="e_fr_energy">    -83.20424144 </i>
    <i name="e_wo_entrp">    -83.20424144 </i>
    <i name="e_0_energy">    -83.20424144 </i>
   </energy>
  </scstep>
  <scstep>
   <time name="dav">    0.23    0.23</time>
   <time name="total">    0.53    0.54</time>
   <energy>
    <i name="e_fr_energy">    -77.41535658 </i>
    <i name="e_wo_entrp">    -77.41535658 </i>
    <i name="e_0_energy">    -77.41535658 </i>
   </energy>
  </scstep>
  <scstep>
   <time name="dav">    0.26    0.26</time>
   <time name="total">    0.57    0.57</time>
   <energy>
    <i name="e_fr_energy">    -75.72102600 </i>
    <i name="e_wo_entrp">    -75.72102600 </i>
    <i name="e_0_energy">    -75.72102600 </i>
   </energy>
  </scstep>
  <scstep>
   <time name="dav">    0.22    0.22</time>
   <time name="total">    0.52    0.52</time>
   <energy>
    <i name="e_fr_energy">    -75.56077907 </i>
    <i name="e_wo_entrp">    -75.56077907 </i>
    <i name="e_0_energy">    -75.56077907 </i>
   </energy>
  </scstep>
  <scstep>
   <time name="dav">    0.24    0.24</time>
   <time name="total">    0.54    0.55</time>
   <energy>
    <i name="e_fr_energy">    -75.53370070 </i>
    <i name="e_wo_entrp">    -75.53370070 </i>
    <i name="e_0_energy">    -75.53370070 </i>
   </energy>
  </scstep>
  <scstep>
   <time name="dav">    0.19    0.20</time>
   <time name="total">    0.50    0.50</time>
   <energy>
    <i name="e_fr_energy">    -75.52904349 </i>
    <i name="e_wo_entrp">    -75.52904349 </i>
    <i name="e_0_energy">    -75.52904349 </i>
   </energy>
  </scstep>
  <scstep>
   <time name="dav">    0.20    0.20</time>
   <time name="total">    0.50    0.51</time>
   <energy>
    <i name="e_fr_energy">    -75.52404169 </i>
    <i name="e_wo_entrp">    -75.52404169 </i>
    <i name="e_0_energy">    -75.52404169 </i>
   </energy>
  </scstep>
  <scstep>
   <time name="dav">    0.20    0.20</time>
   <time name="total">    0.49    0.49</time>
   <energy>
    <i name="e_fr_energy">    -75.52746150 </i>
    <i name="e_wo_entrp">    -75.52746150 </i>
    <i name="e_0_energy">    -75.52746150 </i>
   </energy>
  </scstep>
  <scstep>
   <time name="dav">    0.22    0.22</time>
   <time name="total">    0.50    0.51</time>
   <energy>
    <i name="e_fr_energy">    -75.53664580 </i>
    <i name="e_wo_entrp">    -75.53664580 </i>
    <i name="e_0_energy">    -75.53664580 </i>
   </energy>
  </scstep>
  <scstep>
   <time name="dav">    0.22    0.22</time>
   <time name="total">    0.50    0.51</time>
   <energy>
    <i name="e_fr_energy">    -75.54337809 </i>
    <i name="e_wo_entrp">    -75.54337809 </i>
    <i name="e_0_energy">    -75.54337809 </i>
   </energy>
  </scstep>
  <scstep>
   <time name="dav">    0.22    0.22</time>
   <time name="total">    0.50    0.50</time>
   <energy>
    <i name="e_fr_energy">    -75.54645043 </i>
    <i name="e_wo_entrp">    -75.54645043 </i>
    <i name="e_0_energy">    -75.54645043 </i>
   </energy>
  </scstep>
  <scstep>
   <time name="dav">    0.22    0.22</time>
   <time name="total">    0.50    0.50</time>
   <energy>
    <i name="e_fr_energy">    -75.54765143 </i>
    <i name="e_wo_entrp">    -75.54765143 </i>
    <i name="e_0_energy">    -75.54765143 </i>
   </energy>
  </scstep>
  <scstep>
   <time name="dav">    0.22    0.22</time>
   <time name="total">    0.50    0.51</time>
   <energy>
    <i name="e_fr_energy">    -75.54833315 </i>
    <i name="e_wo_entrp">    -75.54833315 </i>
    <i name="e_0_energy">    -75.54833315 </i>
   </energy>
  </scstep>
  <scstep>
   <time name="dav">    0.24    0.24</time>
   <time name="total">    0.54    0.54</time>
   <energy>
    <i name="e_fr_energy">    -75.54843724 </i>
    <i name="e_wo_entrp">    -75.54843724 </i>
    <i name="e_0_energy">    -75.54843724 </i>
   </energy>
  </scstep>
  <scstep>
   <time name="dav">    0.20    0.20</time>
   <time name="total">    0.49    0.49</time>
   <energy>
    <i name="e_fr_energy">    -75.54847232 </i>
    <i name="e_wo_entrp">    -75.54847232 </i>
    <i name="e_0_energy">    -75.54847232 </i>
   </energy>
  </scstep>
  <scstep>
   <time name="dav">    0.20    0.20</time>
   <time name="total">    0.49    0.49</time>
   <energy>
    <i name="e_fr_energy">    -75.54849054 </i>
    <i name="e_wo_entrp">    -75.54849054 </i>
    <i name="e_0_energy">    -75.54849054 </i>
   </energy>
  </scstep>
  <scstep>
   <time name="dav">    0.20    0.20</time>
   <time name="total">    0.49    0.50</time>
   <energy>
    <i name="e_fr_energy">    -75.54849459 </i>
    <i name="e_wo_entrp">    -75.54849459 </i>
    <i name="e_0_energy">    -75.54849459 </i>
   </energy>
  </scstep>
  <scstep>
   <time name="dav">    0.17    0.18</time>
   <time name="total">    0.47    0.48</time>
   <energy>
    <i name="e_fr_energy">    -75.54849610 </i>
    <i name="e_wo_entrp">    -75.54849610 </i>
    <i name="e_0_energy">    -75.54849610 </i>
   </energy>
  </scstep>
  <scstep>
   <time name="dav">    0.17    0.17</time>
   <time name="total">    0.43    0.44</time>
   <energy>
    <i name="alphaZ">      3.48814018 </i>
    <i name="ewald">   1095.21994243 </i>
    <i name="hartreedc">  -1878.18753006 </i>
    <i name="XCdc">     97.53124484 </i>
    <i name="pawpsdc">   2379.25129251 </i>
    <i name="pawaedc">  -2383.45574324 </i>
    <i name="eentropy">     -0.00000000 </i>
    <i name="bandstr">   -347.22550012 </i>
    <i name="atom">    957.82965714 </i>
    <i name="e_fr_energy">    -75.54849633 </i>
    <i name="e_wo_entrp">    -75.54849633 </i>
    <i name="e_0_energy">    -75.54849633 </i>
   </energy>
  </scstep>
  <structure>
   <crystal>
    <varray name="basis" >
     <v>      10.58354422       0.00000000       0.00000000 </v>
     <v>       0.00000000      10.58354422       0.00000000 </v>
     <v>       0.00000000       0.00000000      10.58354422 </v>
    </varray>
    <i name="volume">   1185.47769178 </i>
    <varray name="rec_basis" >
     <v>       0.09448631       0.00000000       0.00000000 </v>
     <v>       0.00000000       0.09448631       0.00000000 </v>
     <v>       0.00000000       0.00000000       0.09448631 </v>
    </varray>
   </crystal>
   <varray name="positions" >
    <v>       0.49902620       0.63552660       0.50284970 </v>
    <v>       0.38900400       0.56841585       0.49448020 </v>
    <v>       0.38525025       0.43546415       0.50371490 </v>
    <v>       0.50377255       0.36594975       0.50789015 </v>
    <v>       0.61715855       0.43335870       0.49842935 </v>
    <v>       0.61744465       0.57085700       0.50780015 </v>
    <v>       0.49139105       0.73577675       0.50690810 </v>
    <v>       0.29626220       0.60861220       0.48625120 </v>
    <v>       0.29541630       0.38836340       0.50152915 </v>
    <v>       0.49166015       0.25903490       0.50694700 </v>
    <v>       0.70388650       0.37588355       0.48110130 </v>
    <v>       0.70972745       0.62275705       0.50209865 </v>
   </varray>
  </structure>
  <varray name="forces" >
   <v>       1.89916718      -0.77911548       0.22669052 </v>
   <v>      -1.14798966      -2.16291306       0.39145254 </v>
   <v>       2.58622881       0.13185797      -0.09248270 </v>
   <v>      -2.36539600       0.07952069      -0.48275281 </v>
   <v>       0.25550831       0.74984292       0.27972307 </v>
   <v>      -0.25619852      -1.12471996      -0.89565010 </v>
   <v>       0.32138300       0.97911131      -0.06437170 </v>
   <v>      -0.35902794       0.87643155      -0.03893544 </v>
   <v>      -0.40638143      -0.40621271       0.04818670 </v>
   <v>       0.72782640       1.32173564       0.01914687 </v>
   <v>      -0.34851682       0.76275557       0.41532920 </v>
   <v>      -0.90660334      -0.42829443       0.19366385 </v>
  </varray>
  <varray name="stress" >
   <v>      -4.46323020       1.89249165       0.23599966 </v>
   <v>       1.89249165      -7.38504380      -0.15899946 </v>
   <v>       0.23599965      -0.15899947      -0.46114983 </v>
  </varray>
  <energy>
   <i name="e_fr_energy">    -75.54849633 </i>
   <i name="e_wo_entrp">    -75.54849633 </i>
   <i name="e_0_energy">    -75.54849633 </i>
  </energy>
  <time name="totalsc">   16.22   16.43</time>
  <eigenvalues>
   <array>
    <dimension dim="1">band</dimension>
    <dimension dim="2">kpoint</dimension>
    <dimension dim="3">spin</dimension>
    <field>eigene</field>
    <field>occ</field>
    <set>
     <set comment="spin 1">
      <set comment="kpoint 1">
       <r>  -20.5481    1.0000 </r>
       <r>  -18.0287    1.0000 </r>
       <r>  -17.7313    1.0000 </r>
       <r>  -14.4543    1.0000 </r>
       <r>  -14.1955    1.0000 </r>
       <r>  -12.3037    1.0000 </r>
       <r>  -10.8339    1.0000 </r>
       <r>  -10.3527    1.0000 </r>
       <r>   -9.8127    1.0000 </r>
       <r>   -9.6081    1.0000 </r>
       <r>   -8.5112    1.0000 </r>
       <r>   -8.0278    1.0000 </r>
       <r>   -7.5123    1.0000 </r>
       <r>   -5.9786    1.0000 </r>
       <r>   -5.7139    1.0000 </r>
       <r>   -1.1491    0.0000 </r>
       <r>   -0.8352    0.0000 </r>
       <r>   -0.4354    0.0000 </r>
       <r>    0.6792    0.0000 </r>
       <r>    0.8284    0.0000 </r>
       <r>    0.8575    0.0000 </r>
       <r>    0.8849    0.0000 </r>
       <r>    0.9902    0.0000 </r>
       <r>    1.4593    0.0000 </r>
      </set>
     </set>
    </set>
   </array>
  </eigenvalues>
  <separator name="orbital magnetization" >
   <v name="MAGDIPOLOUT">      0.00000000      0.00000000      0.00000000</v>
  </separator>
  <dos>
   <i name="efermi">     -5.42392851 </i>
   <total>
    <array>
     <dimension dim="1">gridpoints</dimension>
     <dimension dim="2">spin</dimension>
     <field>energy</field>
     <field>total</field>
     <field>integrated</field>
     <set>
      <set comment="spin 1">
       <r>   -21.6484     0.0000     0.0000 </r>
       <r>   -21.5677     0.0000     0.0000 </r>
       <r>   -21.4870     0.0000     0.0000 </r>
       <r>   -21.4064     0.0000     0.0000 </r>
       <r>   -21.3257     0.0000     0.0000 </r>
       <r>   -21.2450     0.0000     0.0000 </r>
       <r>   -21.1643     0.0000     0.0000 </r>
       <r>   -21.0836     0.0000     0.0000 </r>
       <r>   -21.0029     0.0000     0.0000 </r>
       <r>   -20.9222     0.0000     0.0000 </r>
       <r>   -20.8415     0.0000     0.0000 </r>
       <r>   -20.7608     0.0000     0.0000 </r>
       <r>   -20.6801     0.0023     0.0002 </r>
       <r>   -20.5994     1.8118     0.1464 </r>
       <r>   -20.5187    17.9326     1.5934 </r>
       <r>   -20.4380     5.0154     1.9981 </r>
       <r>   -20.3573     0.0230     2.0000 </r>
       <r>   -20.2766     0.0000     2.0000 </r>
       <r>   -20.1959     0.0000     2.0000 </r>
       <r>   -20.1153     0.0000     2.0000 </r>
       <r>   -20.0346     0.0000     2.0000 </r>
       <r>   -19.9539     0.0000     2.0000 </r>
       <r>   -19.8732     0.0000     2.0000 </r>
       <r>   -19.7925     0.0000     2.0000 </r>
       <r>   -19.7118     0.0000     2.0000 </r>
       <r>   -19.6311     0.0000     2.0000 </r>
       <r>   -19.5504     0.0000     2.0000 </r>
       <r>   -19.4697     0.0000     2.0000 </r>
       <r>   -19.3890     0.0000     2.0000 </r>
       <r>   -19.3083     0.0000     2.0000 </r>
       <r>   -19.2276     0.0000     2.0000 </r>
       <r>   -19.1469     0.0000     2.0000 </r>
       <r>   -19.0662     0.0000     2.0000 </r>
       <r>   -18.9855     0.0000     2.0000 </r>
       <r>   -18.9048     0.0000     2.0000 </r>
       <r>   -18.8242     0.0000     2.0000 </r>
       <r>   -18.7435     0.0000     2.0000 </r>
       <r>   -18.6628     0.0000     2.0000 </r>
       <r>   -18.5821     0.0000     2.0000 </r>
       <r>   -18.5014     0.0000     2.0000 </r>
       <r>   -18.4207     0.0000     2.0000 </r>
       <r>   -18.3400     0.0000     2.0000 </r>
       <r>   -18.2593     0.0000     2.0000 </r>
       <r>   -18.1786     0.0003     2.0000 </r>
       <r>   -18.0979     0.6234     2.0503 </r>
       <r>   -18.0172    14.9283     3.2549 </r>
       <r>   -17.9365     9.1201     3.9909 </r>
       <r>   -17.8558     0.1183     4.0004 </r>
       <r>   -17.7751     2.6631     4.2153 </r>
       <r>   -17.6944    18.4385     5.7032 </r>
       <r>   -17.6137     3.6672     5.9991 </r>
       <r>   -17.5330     0.0109     6.0000 </r>
       <r>   -17.4524     0.0000     6.0000 </r>
       <r>   -17.3717     0.0000     6.0000 </r>
       <r>   -17.2910     0.0000     6.0000 </r>
       <r>   -17.2103     0.0000     6.0000 </r>
       <r>   -17.1296     0.0000     6.0000 </r>
       <r>   -17.0489     0.0000     6.0000 </r>
       <r>   -16.9682     0.0000     6.0000 </r>
       <r>   -16.8875     0.0000     6.0000 </r>
       <r>   -16.8068     0.0000     6.0000 </r>
       <r>   -16.7261     0.0000     6.0000 </r>
       <r>   -16.6454     0.0000     6.0000 </r>
       <r>   -16.5647     0.0000     6.0000 </r>
       <r>   -16.4840     0.0000     6.0000 </r>
       <r>   -16.4033     0.0000     6.0000 </r>
       <r>   -16.3226     0.0000     6.0000 </r>
       <r>   -16.2419     0.0000     6.0000 </r>
       <r>   -16.1613     0.0000     6.0000 </r>
       <r>   -16.0806     0.0000     6.0000 </r>
       <r>   -15.9999     0.0000     6.0000 </r>
       <r>   -15.9192     0.0000     6.0000 </r>
       <r>   -15.8385     0.0000     6.0000 </r>
       <r>   -15.7578     0.0000     6.0000 </r>
       <r>   -15.6771     0.0000     6.0000 </r>
       <r>   -15.5964     0.0000     6.0000 </r>
       <r>   -15.5157     0.0000     6.0000 </r>
       <r>   -15.4350     0.0000     6.0000 </r>
       <r>   -15.3543     0.0000     6.0000 </r>
       <r>   -15.2736     0.0000     6.0000 </r>
       <r>   -15.1929     0.0000     6.0000 </r>
       <r>   -15.1122     0.0000     6.0000 </r>
       <r>   -15.0315     0.0000     6.0000 </r>
       <r>   -14.9508     0.0000     6.0000 </r>
       <r>   -14.8702     0.0000     6.0000 </r>
       <r>   -14.7895     0.0000     6.0000 </r>
       <r>   -14.7088     0.0000     6.0000 </r>
       <r>   -14.6281     0.0000     6.0000 </r>
       <r>   -14.5474     0.1049     6.0085 </r>
       <r>   -14.4667     8.8901     6.7258 </r>
       <r>   -14.3860    15.1283     7.9466 </r>
       <r>   -14.3053     0.6850     8.0019 </r>
       <r>   -14.2246     5.0649     8.4106 </r>
       <r>   -14.1439    17.9071     9.8556 </r>
       <r>   -14.0632     1.7876     9.9998 </r>
       <r>   -13.9825     0.0023    10.0000 </r>
       <r>   -13.9018     0.0000    10.0000 </r>
       <r>   -13.8211     0.0000    10.0000 </r>
       <r>   -13.7404     0.0000    10.0000 </r>
       <r>   -13.6597     0.0000    10.0000 </r>
       <r>   -13.5791     0.0000    10.0000 </r>
       <r>   -13.4984     0.0000    10.0000 </r>
       <r>   -13.4177     0.0000    10.0000 </r>
       <r>   -13.3370     0.0000    10.0000 </r>
       <r>   -13.2563     0.0000    10.0000 </r>
       <r>   -13.1756     0.0000    10.0000 </r>
       <r>   -13.0949     0.0000    10.0000 </r>
       <r>   -13.0142     0.0000    10.0000 </r>
       <r>   -12.9335     0.0000    10.0000 </r>
       <r>   -12.8528     0.0000    10.0000 </r>
       <r>   -12.7721     0.0000    10.0000 </r>
       <r>   -12.6914     0.0000    10.0000 </r>
       <r>   -12.6107     0.0000    10.0000 </r>
       <r>   -12.5300     0.0000    10.0000 </r>
       <r>   -12.4493     0.0005    10.0000 </r>
       <r>   -12.3686     0.8189    10.0661 </r>
       <r>   -12.2879    15.8301    11.3435 </r>
       <r>   -12.2073     8.0564    11.9936 </r>
       <r>   -12.1266     0.0792    12.0000 </r>
       <r>   -12.0459     0.0000    12.0000 </r>
       <r>   -11.9652     0.0000    12.0000 </r>
       <r>   -11.8845     0.0000    12.0000 </r>
       <r>   -11.8038     0.0000    12.0000 </r>
       <r>   -11.7231     0.0000    12.0000 </r>
       <r>   -11.6424     0.0000    12.0000 </r>
       <r>   -11.5617     0.0000    12.0000 </r>
       <r>   -11.4810     0.0000    12.0000 </r>
       <r>   -11.4003     0.0000    12.0000 </r>
       <r>   -11.3196     0.0000    12.0000 </r>
       <r>   -11.2389     0.0000    12.0000 </r>
       <r>   -11.1582     0.0000    12.0000 </r>
       <r>   -11.0775     0.0000    12.0000 </r>
       <r>   -10.9968     0.0001    12.0000 </r>
       <r>   -10.9162     0.2476    12.0200 </r>
       <r>   -10.8355    11.7070    12.9647 </r>
       <r>   -10.7548    12.5179    13.9748 </r>
       <r>   -10.6741     0.3124    14.0000 </r>
       <r>   -10.5934     0.0001    14.0000 </r>
       <r>   -10.5127     0.0001    14.0000 </r>
       <r>   -10.4320     0.3095    14.0250 </r>
       <r>   -10.3513    12.4852    15.0325 </r>
       <r>   -10.2706    11.7402    15.9798 </r>
       <r>   -10.1899     0.2500    16.0000 </r>
       <r>   -10.1092     0.0001    16.0000 </r>
       <r>   -10.0285     0.0000    16.0000 </r>
       <r>    -9.9478     0.0016    16.0001 </r>
       <r>    -9.8671     1.5324    16.1238 </r>
       <r>    -9.7864    17.5839    17.5427 </r>
       <r>    -9.7057     5.7072    18.0032 </r>
       <r>    -9.6251     7.7753    18.6307 </r>
       <r>    -9.5444    16.0821    19.9284 </r>
       <r>    -9.4637     0.8869    20.0000 </r>
       <r>    -9.3830     0.0005    20.0000 </r>
       <r>    -9.3023     0.0000    20.0000 </r>
       <r>    -9.2216     0.0000    20.0000 </r>
       <r>    -9.1409     0.0000    20.0000 </r>
       <r>    -9.0602     0.0000    20.0000 </r>
       <r>    -8.9795     0.0000    20.0000 </r>
       <r>    -8.8988     0.0000    20.0000 </r>
       <r>    -8.8181     0.0000    20.0000 </r>
       <r>    -8.7374     0.0000    20.0000 </r>
       <r>    -8.6567     0.0005    20.0000 </r>
       <r>    -8.5760     0.8260    20.0667 </r>
       <r>    -8.4953    15.8575    21.3463 </r>
       <r>    -8.4146     8.0228    21.9937 </r>
       <r>    -8.3340     0.0782    22.0000 </r>
       <r>    -8.2533     0.0000    22.0000 </r>
       <r>    -8.1726     0.0005    22.0000 </r>
       <r>    -8.0919     0.8647    22.0698 </r>
       <r>    -8.0112    16.0027    23.3611 </r>
       <r>    -7.9305     7.8436    23.9941 </r>
       <r>    -7.8498     0.0735    24.0000 </r>
       <r>    -7.7691     0.0000    24.0000 </r>
       <r>    -7.6884     0.0000    24.0000 </r>
       <r>    -7.6077     0.0861    24.0069 </r>
       <r>    -7.5270     8.2998    24.6767 </r>
       <r>    -7.4463    15.6292    25.9379 </r>
       <r>    -7.3656     0.7695    26.0000 </r>
       <r>    -7.2849     0.0004    26.0000 </r>
       <r>    -7.2042     0.0000    26.0000 </r>
       <r>    -7.1235     0.0000    26.0000 </r>
       <r>    -7.0428     0.0000    26.0000 </r>
       <r>    -6.9622     0.0000    26.0000 </r>
       <r>    -6.8815     0.0000    26.0000 </r>
       <r>    -6.8008     0.0000    26.0000 </r>
       <r>    -6.7201     0.0000    26.0000 </r>
       <r>    -6.6394     0.0000    26.0000 </r>
       <r>    -6.5587     0.0000    26.0000 </r>
       <r>    -6.4780     0.0000    26.0000 </r>
       <r>    -6.3973     0.0000    26.0000 </r>
       <r>    -6.3166     0.0000    26.0000 </r>
       <r>    -6.2359     0.0000    26.0000 </r>
       <r>    -6.1552     0.0000    26.0000 </r>
       <r>    -6.0745     0.0827    26.0067 </r>
       <r>    -5.9938     8.1815    26.6669 </r>
       <r>    -5.9131    15.7273    27.9360 </r>
       <r>    -5.8324     0.8031    28.0008 </r>
       <r>    -5.7517     3.5207    28.2849 </r>
       <r>    -5.6711    18.4645    29.7748 </r>
       <r>    -5.5904     2.7845    29.9995 </r>
       <r>    -5.5097     0.0059    30.0000 </r>
       <r>    -5.4290     0.0000    30.0000 </r>
       <r>    -5.3483     0.0000    30.0000 </r>
       <r>    -5.2676     0.0000    30.0000 </r>
       <r>    -5.1869     0.0000    30.0000 </r>
       <r>    -5.1062     0.0000    30.0000 </r>
       <r>    -5.0255     0.0000    30.0000 </r>
       <r>    -4.9448     0.0000    30.0000 </r>
       <r>    -4.8641     0.0000    30.0000 </r>
       <r>    -4.7834     0.0000    30.0000 </r>
       <r>    -4.7027     0.0000    30.0000 </r>
       <r>    -4.6220     0.0000    30.0000 </r>
       <r>    -4.5413     0.0000    30.0000 </r>
       <r>    -4.4606     0.0000    30.0000 </r>
       <r>    -4.3800     0.0000    30.0000 </r>
       <r>    -4.2993     0.0000    30.0000 </r>
       <r>    -4.2186     0.0000    30.0000 </r>
       <r>    -4.1379     0.0000    30.0000 </r>
       <r>    -4.0572     0.0000    30.0000 </r>
       <r>    -3.9765     0.0000    30.0000 </r>
       <r>    -3.8958     0.0000    30.0000 </r>
       <r>    -3.8151     0.0000    30.0000 </r>
       <r>    -3.7344     0.0000    30.0000 </r>
       <r>    -3.6537     0.0000    30.0000 </r>
       <r>    -3.5730     0.0000    30.0000 </r>
       <r>    -3.4923     0.0000    30.0000 </r>
       <r>    -3.4116     0.0000    30.0000 </r>
       <r>    -3.3309     0.0000    30.0000 </r>
       <r>    -3.2502     0.0000    30.0000 </r>
       <r>    -3.1695     0.0000    30.0000 </r>
       <r>    -3.0889     0.0000    30.0000 </r>
       <r>    -3.0082     0.0000    30.0000 </r>
       <r>    -2.9275     0.0000    30.0000 </r>
       <r>    -2.8468     0.0000    30.0000 </r>
       <r>    -2.7661     0.0000    30.0000 </r>
       <r>    -2.6854     0.0000    30.0000 </r>
       <r>    -2.6047     0.0000    30.0000 </r>
       <r>    -2.5240     0.0000    30.0000 </r>
       <r>    -2.4433     0.0000    30.0000 </r>
       <r>    -2.3626     0.0000    30.0000 </r>
       <r>    -2.2819     0.0000    30.0000 </r>
       <r>    -2.2012     0.0000    30.0000 </r>
       <r>    -2.1205     0.0000    30.0000 </r>
       <r>    -2.0398     0.0000    30.0000 </r>
       <r>    -1.9591     0.0000    30.0000 </r>
       <r>    -1.8784     0.0000    30.0000 </r>
       <r>    -1.7977     0.0000    30.0000 </r>
       <r>    -1.7171     0.0000    30.0000 </r>
       <r>    -1.6364     0.0000    30.0000 </r>
       <r>    -1.5557     0.0000    30.0000 </r>
       <r>    -1.4750     0.0000    30.0000 </r>
       <r>    -1.3943     0.0000    30.0000 </r>
       <r>    -1.3136     0.0000    30.0000 </r>
       <r>    -1.2329     0.2197    30.0177 </r>
       <r>    -1.1522    11.2956    30.9292 </r>
       <r>    -1.0715    12.9194    31.9717 </r>
       <r>    -0.9908     0.3504    32.0000 </r>
       <r>    -0.9101     0.4227    32.0341 </r>
       <r>    -0.8294    13.5806    33.1300 </r>
       <r>    -0.7487    10.6027    33.9856 </r>
       <r>    -0.6680     0.1790    34.0000 </r>
       <r>    -0.5873     0.0002    34.0000 </r>
       <r>    -0.5066     0.5436    34.0439 </r>
       <r>    -0.4260    14.4595    35.2107 </r>
       <r>    -0.3453     9.6481    35.9892 </r>
       <r>    -0.2646     0.1336    36.0000 </r>
       <r>    -0.1839     0.0000    36.0000 </r>
       <r>    -0.1032     0.0000    36.0000 </r>
       <r>    -0.0225     0.0000    36.0000 </r>
       <r>     0.0582     0.0000    36.0000 </r>
       <r>     0.1389     0.0000    36.0000 </r>
       <r>     0.2196     0.0000    36.0000 </r>
       <r>     0.3003     0.0000    36.0000 </r>
       <r>     0.3810     0.0000    36.0000 </r>
       <r>     0.4617     0.0000    36.0000 </r>
       <r>     0.5424     0.0014    36.0001 </r>
       <r>     0.6231     1.3924    36.1125 </r>
       <r>     0.7038    17.3621    37.5135 </r>
       <r>     0.7845     9.1751    38.2538 </r>
       <r>     0.8651    39.5873    41.4483 </r>
       <r>     0.9458    32.9992    44.1111 </r>
       <r>     1.0265    19.6343    45.6955 </r>
       <r>     1.1072     3.7619    45.9991 </r>
       <r>     1.1879     0.0116    46.0000 </r>
       <r>     1.2686     0.0000    46.0000 </r>
       <r>     1.3493     0.0230    46.0019 </r>
       <r>     1.4300     5.0154    46.4066 </r>
       <r>     1.5107    17.9326    47.8536 </r>
       <r>     1.5914     1.8118    47.9998 </r>
       <r>     1.6721     0.0023    48.0000 </r>
       <r>     1.7528     0.0000    48.0000 </r>
       <r>     1.8335     0.0000    48.0000 </r>
       <r>     1.9142     0.0000    48.0000 </r>
       <r>     1.9949     0.0000    48.0000 </r>
       <r>     2.0756     0.0000    48.0000 </r>
       <r>     2.1563     0.0000    48.0000 </r>
       <r>     2.2369     0.0000    48.0000 </r>
       <r>     2.3176     0.0000    48.0000 </r>
       <r>     2.3983     0.0000    48.0000 </r>
       <r>     2.4790     0.0000    48.0000 </r>
       <r>     2.5597     0.0000    48.0000 </r>
      </set>
     </set>
    </array>
   </total>
  </dos>
 </calculation>
 <structure name="finalpos" >
  <crystal>
   <varray name="basis" >
    <v>      10.58354422       0.00000000       0.00000000 </v>
    <v>       0.00000000      10.58354422       0.00000000 </v>
    <v>       0.00000000       0.00000000      10.58354422 </v>
   </varray>
   <i name="volume">   1185.47769178 </i>
   <varray name="rec_basis" >
    <v>       0.09448631       0.00000000       0.00000000 </v>
    <v>       0.00000000       0.09448631       0.00000000 </v>
    <v>       0.00000000       0.00000000       0.09448631 </v>
   </varray>
  </crystal>
  <varray name="positions" >
   <v>       0.49902620       0.63552660       0.50284970 </v>
   <v>       0.38900400       0.56841585       0.49448020 </v>
   <v>       0.38525025       0.43546415       0.50371490 </v>
   <v>       0.50377255       0.36594975       0.50789015 </v>
   <v>       0.61715855       0.43335870       0.49842935 </v>
   <v>       0.61744465       0.57085700       0.50780015 </v>
   <v>       0.49139105       0.73577675       0.50690810 </v>
   <v>       0.29626220       0.60861220       0.48625120 </v>
   <v>       0.29541630       0.38836340       0.50152915 </v>
   <v>       0.49166015       0.25903490       0.50694700 </v>
   <v>       0.70388650       0.37588355       0.48110130 </v>
   <v>       0.70972745       0.62275705       0.50209865 </v>
  </varray>
 </structure>
</modeling>
