<?xml version="1.0" encoding="ISO-8859-1"?>
<modeling>
 <generator>
  <i name="program" type="string">vasp </i>
  <i name="version" type="string">6.2.0  </i>
  <i name="subversion" type="string">18Jan21 (build Mar 25 2021 14:28:09) complex                          parallel </i>
  <i name="platform" type="string">LinuxGNU </i>
  <i name="date" type="string">2021 12 20 </i>
  <i name="time" type="string">09:56:52 </i>
 </generator>
 <incar>
  <i type="string" name="SYSTEM">benzene</i>
  <i type="int" name="ISTART">     0</i>
  <i type="string" name="PREC">Accurate</i>
  <i type="string" name="ALGO">Normal</i>
  <i type="int" name="NELM">   200</i>
  <i type="int" name="IBRION">    -1</i>
  <i name="EDIFF">      0.00000100</i>
  <i type="int" name="NSW">     0</i>
  <i name="ENCUT">    600.00000000</i>
  <i type="logical" name="LREAL"> F  </i>
  <i type="int" name="ISMEAR">     0</i>
  <i name="SIGMA">      0.05000000</i>
  <i type="logical" name="LWAVE"> F  </i>
  <i type="logical" name="LCHARG"> T  </i>
  <i type="string" name="GGA">PE</i>
 </incar>
 <primitive_cell>
  <structure name="primitive_cell" >
   <crystal>
    <varray name="basis" >
     <v>      10.58354422       0.00000000       0.00000000 </v>
     <v>       0.00000000      10.58354422       0.00000000 </v>
     <v>       0.00000000       0.00000000      10.58354422 </v>
    </varray>
    <i name="volume">   1185.47769178 </i>
    <varray name="rec_basis" >
     <v>       0.09448631       0.00000000       0.00000000 </v>
     <v>       0.00000000       0.09448631       0.00000000 </v>
     <v>       0.00000000       0.00000000       0.09448631 </v>
    </varray>
   </crystal>
   <varray name="positions" >
    <v>       0.49924810       0.63541050       0.50063985 </v>
    <v>       0.39084735       0.56539500       0.50193875 </v>
    <v>       0.38746230       0.43068390       0.49336035 </v>
    <v>       0.49653660       0.36489715       0.50454355 </v>
    <v>       0.61790255       0.42906760       0.50171815 </v>
    <v>       0.61369500       0.56499950       0.50114980 </v>
    <v>       0.48720580       0.73455980       0.50035775 </v>
    <v>       0.30740300       0.62213090       0.50949560 </v>
    <v>       0.29628765       0.38342430       0.48658145 </v>
    <v>       0.49212760       0.26402945       0.50845765 </v>
    <v>       0.70874715       0.38720330       0.49926535 </v>
    <v>       0.70253695       0.61819840       0.49249175 </v>
   </varray>
  </structure>
  <varray name="primitive_index" >
   <v type="int" >        1 </v>
   <v type="int" >        2 </v>
   <v type="int" >        3 </v>
   <v type="int" >        4 </v>
   <v type="int" >        5 </v>
   <v type="int" >        6 </v>
   <v type="int" >        7 </v>
   <v type="int" >        8 </v>
   <v type="int" >        9 </v>
   <v type="int" >       10 </v>
   <v type="int" >       11 </v>
   <v type="int" >       12 </v>
  </varray>
 </primitive_cell>
 <kpoints>
  <generation param="Gamma">
   <v type="int" name="divisions">       1        1        1 </v>
   <v name="usershift">      0.00000000       0.00000000       0.00000000 </v>
   <v name="genvec1">      1.00000000       0.00000000       0.00000000 </v>
   <v name="genvec2">      0.00000000       1.00000000       0.00000000 </v>
   <v name="genvec3">      0.00000000       0.00000000       1.00000000 </v>
   <v name="shift">      0.00000000       0.00000000       0.00000000 </v>
  </generation>
  <varray name="kpointlist" >
   <v>       0.00000000       0.00000000       0.00000000 </v>
  </varray>
  <varray name="weights" >
   <v>       1.00000000 </v>
  </varray>
 </kpoints>
 <parameters>
  <separator name="general" >
   <i type="string" name="SYSTEM">benzene</i>
   <i type="logical" name="LCOMPAT"> F  </i>
  </separator>
  <separator name="electronic" >
   <i type="string" name="PREC">accura</i>
   <i name="ENMAX">    600.00000000</i>
   <i name="ENAUG">    644.87300000</i>
   <i name="EDIFF">      0.00000100</i>
   <i type="int" name="IALGO">    38</i>
   <i type="int" name="IWAVPR">    10</i>
   <i type="int" name="NBANDS">    24</i>
   <i type="int" name="NBANDSLOW">    -1</i>
   <i type="int" name="NBANDSHIGH">    -1</i>
   <i name="NELECT">     30.00000000</i>
   <i type="int" name="TURBO">     0</i>
   <i type="int" name="IRESTART">     0</i>
   <i type="int" name="NREBOOT">     0</i>
   <i type="int" name="NMIN">     0</i>
   <i name="EREF">      0.00000000</i>
   <separator name="electronic smearing" >
    <i type="int" name="ISMEAR">     0</i>
    <i name="SIGMA">      0.05000000</i>
    <i name="KSPACING">      0.50000000</i>
    <i type="logical" name="KGAMMA"> T  </i>
    <i type="logical" name="KBLOWUP"> T  </i>
   </separator>
   <separator name="electronic projectors" >
    <i type="logical" name="LREAL"> F  </i>
    <v name="ROPT">      0.00000000      0.00000000</v>
    <i type="int" name="LMAXPAW">  -100</i>
    <i type="int" name="LMAXMIX">     2</i>
    <i type="logical" name="NLSPLINE"> F  </i>
   </separator>
   <separator name="electronic startup" >
    <i type="int" name="ISTART">     0</i>
    <i type="int" name="ICHARG">     2</i>
    <i type="int" name="INIWAV">     1</i>
   </separator>
   <separator name="electronic spin" >
    <i type="int" name="ISPIN">     1</i>
    <i type="logical" name="LNONCOLLINEAR"> F  </i>
    <v name="MAGMOM">      1.00000000      1.00000000      1.00000000      1.00000000      1.00000000      1.00000000      1.00000000      1.00000000      1.00000000      1.00000000      1.00000000      1.00000000</v>
    <i name="NUPDOWN">     -1.00000000</i>
    <i type="logical" name="LSORBIT"> F  </i>
    <v name="SAXIS">      0.00000000      0.00000000      1.00000000</v>
    <i type="logical" name="LSPIRAL"> F  </i>
    <v name="QSPIRAL">      0.00000000      0.00000000      0.00000000</v>
    <i type="logical" name="LZEROZ"> F  </i>
   </separator>
   <separator name="electronic exchange-correlation" >
    <i type="logical" name="LASPH"> F  </i>
    <i type="logical" name="LMETAGGA"> F  </i>
   </separator>
   <separator name="electronic convergence" >
    <i type="int" name="NELM">   200</i>
    <i type="int" name="NELMDL">    -5</i>
    <i type="int" name="NELMIN">     2</i>
    <i name="ENINI">    600.00000000</i>
    <separator name="electronic convergence detail" >
     <i type="logical" name="LDIAG"> T  </i>
     <i type="logical" name="LSUBROT"> F  </i>
     <i name="WEIMIN">      0.00000000</i>
     <i name="EBREAK">      0.00000001</i>
     <i name="DEPER">      0.30000000</i>
     <i type="int" name="NRMM">     4</i>
     <i name="TIME">      0.40000000</i>
    </separator>
   </separator>
   <separator name="electronic mixer" >
    <i name="AMIX">      0.40000000</i>
    <i name="BMIX">      1.00000000</i>
    <i name="AMIN">      0.10000000</i>
    <i name="AMIX_MAG">      1.60000000</i>
    <i name="BMIX_MAG">      1.00000000</i>
    <separator name="electronic mixer details" >
     <i type="int" name="IMIX">     4</i>
     <i type="logical" name="MIXFIRST"> F  </i>
     <i type="int" name="MAXMIX">   -45</i>
     <i name="WC">    100.00000000</i>
     <i type="int" name="INIMIX">     1</i>
     <i type="int" name="MIXPRE">     1</i>
     <i type="int" name="MREMOVE">     5</i>
    </separator>
   </separator>
   <separator name="electronic dipolcorrection" >
    <i type="logical" name="LDIPOL"> F  </i>
    <i type="logical" name="LMONO"> F  </i>
    <i type="int" name="IDIPOL">     0</i>
    <i name="EPSILON">      1.00000000</i>
    <v name="DIPOL">   -100.00000000   -100.00000000   -100.00000000</v>
    <i name="EFIELD">      0.00000000</i>
   </separator>
  </separator>
  <separator name="grids" >
   <i type="int" name="NGX">    90</i>
   <i type="int" name="NGY">    90</i>
   <i type="int" name="NGZ">    90</i>
   <i type="int" name="NGXF">   180</i>
   <i type="int" name="NGYF">   180</i>
   <i type="int" name="NGZF">   180</i>
   <i type="logical" name="ADDGRID"> F  </i>
  </separator>
  <separator name="ionic" >
   <i type="int" name="NSW">     0</i>
   <i type="int" name="IBRION">    -1</i>
   <i type="int" name="MDALGO">     0</i>
   <i type="int" name="ISIF">     2</i>
   <i name="PSTRESS">      0.00000000</i>
   <i name="EDIFFG">      0.00001000</i>
   <i type="int" name="NFREE">     0</i>
   <i name="POTIM">      0.50000000</i>
   <i name="SMASS">     -3.00000000</i>
   <i name="SCALEE">      1.00000000</i>
  </separator>
  <separator name="ionic md" >
   <i name="TEBEG">      0.00010000</i>
   <i name="TEEND">      0.00010000</i>
   <i type="int" name="NBLOCK">     1</i>
   <i type="int" name="KBLOCK">     1</i>
   <i type="int" name="NPACO">   256</i>
   <i name="APACO">     16.00000000</i>
  </separator>
  <separator name="symmetry" >
   <i type="int" name="ISYM">     2</i>
   <i name="SYMPREC">      0.00001000</i>
  </separator>
  <separator name="dos" >
   <i type="int" name="LORBIT">     0</i>
   <v name="RWIGS">     -1.00000000     -1.00000000</v>
   <i type="int" name="NEDOS">   301</i>
   <i name="EMIN">     10.00000000</i>
   <i name="EMAX">    -10.00000000</i>
   <i name="EFERMI">      0.00000000</i>
  </separator>
  <separator name="writing" >
   <i type="int" name="NWRITE">     2</i>
   <i type="logical" name="LWAVE"> F  </i>
   <i type="logical" name="LDOWNSAMPLE"> F  </i>
   <i type="logical" name="LCHARG"> T  </i>
   <i type="logical" name="LPARD"> F  </i>
   <i type="logical" name="LVTOT"> F  </i>
   <i type="logical" name="LVHAR"> F  </i>
   <i type="logical" name="LELF"> F  </i>
   <i type="logical" name="LOPTICS"> F  </i>
   <v name="STM">      0.00000000      0.00000000      0.00000000      0.00000000      0.00000000      0.00000000      0.00000000</v>
  </separator>
  <separator name="performance" >
   <i type="int" name="NPAR">     4</i>
   <i type="int" name="NSIM">     4</i>
   <i type="int" name="NBLK">    -1</i>
   <i type="logical" name="LPLANE"> T  </i>
   <i type="logical" name="LSCALAPACK"> T  </i>
   <i type="logical" name="LSCAAWARE"> F  </i>
   <i type="logical" name="LSCALU"> F  </i>
   <i type="logical" name="LASYNC"> F  </i>
   <i type="logical" name="LORBITALREAL"> F  </i>
  </separator>
  <separator name="miscellaneous" >
   <i type="int" name="IDIOT">     3</i>
   <i type="int" name="PHON_NSTRUCT">    -1</i>
   <i type="logical" name="LMUSIC"> F  </i>
   <v name="POMASS">     12.01100000      1.00000000</v>
   <v name="DARWINR">      0.00000000      0.00000000</v>
   <v name="DARWINV">      1.00000000      1.00000000</v>
   <i type="logical" name="LCORR"> T  </i>
  </separator>
  <i type="logical" name="GGA_COMPAT"> T  </i>
  <i type="logical" name="LBERRY"> F  </i>
  <i type="int" name="ICORELEVEL">     0</i>
  <i type="logical" name="LDAU"> F  </i>
  <i type="int" name="I_CONSTRAINED_M">     0</i>
  <separator name="electronic exchange-correlation" >
   <i type="string" name="GGA">PE</i>
   <i type="int" name="VOSKOWN">     0</i>
   <i type="logical" name="LHFCALC"> F  </i>
   <i type="string" name="PRECFOCK"></i>
   <i type="logical" name="LSYMGRAD"> F  </i>
   <i type="logical" name="LHFONE"> F  </i>
   <i type="logical" name="LRHFCALC"> F  </i>
   <i type="logical" name="LTHOMAS"> F  </i>
   <i type="logical" name="LMODELHF"> F  </i>
   <i type="logical" name="LFOCKACE"> F  </i>
   <i name="ENCUT4O">     -1.00000000</i>
   <i type="int" name="EXXOEP">     0</i>
   <i type="int" name="FOURORBIT">     0</i>
   <i name="AEXX">      0.00000000</i>
   <i name="HFALPHA">      0.00000000</i>
   <i name="MCALPHA">      0.00000000</i>
   <i name="ALDAX">      1.00000000</i>
   <i name="AGGAX">      1.00000000</i>
   <i name="ALDAC">      1.00000000</i>
   <i name="AGGAC">      1.00000000</i>
   <i type="int" name="NKREDX">     1</i>
   <i type="int" name="NKREDY">     1</i>
   <i type="int" name="NKREDZ">     1</i>
   <i type="logical" name="SHIFTRED"> F  </i>
   <i type="logical" name="ODDONLY"> F  </i>
   <i type="logical" name="EVENONLY"> F  </i>
   <i type="int" name="LMAXFOCK">     0</i>
   <i type="int" name="NMAXFOCKAE">     0</i>
   <i type="logical" name="LFOCKAEDFT"> F  </i>
   <i name="HFSCREEN">      0.00000000</i>
   <i name="HFSCREENC">      0.00000000</i>
   <i type="int" name="NBANDSGWLOW">     0</i>
  </separator>
  <separator name="vdW DFT" >
   <i type="logical" name="LUSE_VDW"> F  </i>
   <i name="Zab_VDW">     -0.84910000</i>
   <i name="PARAM1">      0.12340000</i>
   <i name="PARAM2">      1.00000000</i>
   <i name="PARAM3">      0.00000000</i>
  </separator>
  <separator name="model GW" >
   <i type="int" name="MODEL_GW">     0</i>
   <i name="MODEL_EPS0">     59.27388459</i>
   <i name="MODEL_ALPHA">      1.00000000</i>
  </separator>
  <separator name="linear response parameters" >
   <i type="logical" name="LEPSILON"> F  </i>
   <i type="logical" name="LRPA"> F  </i>
   <i type="logical" name="LNABLA"> F  </i>
   <i type="logical" name="LVEL"> F  </i>
   <i type="int" name="KINTER">     0</i>
   <i name="CSHIFT">      0.10000000</i>
   <i name="OMEGAMAX">     -1.00000000</i>
   <i name="DEG_THRESHOLD">      0.00200000</i>
   <i name="RTIME">     -0.10000000</i>
   <i name="WPLASMAI">      0.00000000</i>
   <v name="DFIELD">      0.00000000      0.00000000      0.00000000</v>
   <v name="WPLASMA">      0.00000000      0.00000000      0.00000000      0.00000000      0.00000000      0.00000000      0.00000000      0.00000000      0.00000000</v>
  </separator>
  <separator name="orbital magnetization" >
   <i type="logical" name="NUCIND"> F  </i>
   <v name="MAGPOS">      0.00000000      0.00000000      0.00000000</v>
   <i type="logical" name="LNICSALL"> T  </i>
   <i type="logical" name="ORBITALMAG"> F  </i>
   <i type="logical" name="LMAGBLOCH"> F  </i>
   <i type="logical" name="LCHIMAG"> F  </i>
   <i type="logical" name="LGAUGE"> T  </i>
   <i type="int" name="MAGATOM">     0</i>
   <v name="MAGDIPOL">      0.00000000      0.00000000      0.00000000</v>
   <v name="AVECCONST">      0.00000000      0.00000000      0.00000000</v>
  </separator>
  <separator name="response functions" >
   <i type="logical" name="LFINITE_TEMPERATURE"> F  </i>
   <i type="logical" name="LADDER"> F  </i>
   <i type="logical" name="LRPAFORCE"> F  </i>
   <i type="logical" name="LFXC"> F  </i>
   <i type="logical" name="LHARTREE"> T  </i>
   <i type="int" name="IBSE">     0</i>
   <v type="int" name="KPOINT">    -1     0     0     0</v>
   <i type="logical" name="LTCTC"> F  </i>
   <i type="logical" name="LTCTE"> F  </i>
   <i type="logical" name="LTETE"> F  </i>
   <i type="logical" name="LTRIPLET"> F  </i>
   <i type="logical" name="LFXCEPS"> F  </i>
   <i type="logical" name="LFXHEG"> F  </i>
   <i type="int" name="NATURALO">     2</i>
   <i type="logical" name="LHOLEGF"> F  </i>
   <i type="logical" name="L2ORDER"> F  </i>
   <i type="logical" name="LDMP1"> F  </i>
   <i type="logical" name="LMP2LT"> F  </i>
   <i type="logical" name="LSMP2LT"> F  </i>
   <i type="logical" name="LGWLF"> F  </i>
   <i name="ENCUTGW">     -2.00000000</i>
   <i name="ENCUTGWSOFT">     -2.00000000</i>
   <i name="ENCUTLF">     -1.00000000</i>
   <i type="logical" name="LESF_SPLINES"> F  </i>
   <i type="int" name="LMAXMP2">    -1</i>
   <i name="SCISSOR">      0.00000000</i>
   <i type="int" name="NOMEGA">     0</i>
   <i type="int" name="NOMEGAR">     0</i>
   <i type="int" name="NBANDSGW">    -1</i>
   <i type="int" name="NBANDSO">    -1</i>
   <i type="int" name="NBANDSV">    -1</i>
   <i type="int" name="NELM">   200</i>
   <i type="int" name="NELMHF">     1</i>
   <i type="int" name="DIM">     3</i>
   <i type="int" name="IESPILON">     4</i>
   <i type="int" name="ANTIRES">     0</i>
   <i name="OMEGAMAX">    -30.00000000</i>
   <i name="OMEGAMIN">    -30.00000000</i>
   <i name="OMEGATL">   -200.00000000</i>
   <i type="int" name="OMEGAGRID">     0</i>
   <i name="CSHIFT">     -0.10000000</i>
   <i type="logical" name="LSELFENERGY"> F  </i>
   <i type="logical" name="LSPECTRAL"> F  </i>
   <i type="logical" name="LSPECTRALGW"> F  </i>
   <i type="logical" name="LSINGLES"> F  </i>
   <i type="logical" name="LFERMIGW"> F  </i>
   <i type="logical" name="ODDONLYGW"> F  </i>
   <i type="logical" name="EVENONLYGW"> F  </i>
   <i type="int" name="NKREDLFX">     1</i>
   <i type="int" name="NKREDLFY">     1</i>
   <i type="int" name="NKREDLFZ">     1</i>
   <i type="int" name="MAXMEM">  2800</i>
   <i type="int" name="TELESCOPE">     0</i>
   <i type="int" name="NTAUPAR">    -1</i>
   <i type="int" name="NOMEGAPAR">    -1</i>
   <i name="DAMP_NEWTON">      0.80000001</i>
   <i name="LAMBDA">      1.00000000</i>
  </separator>
  <separator name="External order field" >
   <i name="OFIELD_KAPPA">      0.00000000</i>
   <v name="OFIELD_K">      0.00000000      0.00000000      0.00000000</v>
   <i name="OFIELD_Q6_NEAR">      0.00000000</i>
   <i name="OFIELD_Q6_FAR">      0.00000000</i>
   <i name="OFIELD_A">      0.00000000</i>
  </separator>
 </parameters>
 <atominfo>
  <atoms>      12 </atoms>
  <types>       2 </types>
  <array name="atoms" >
   <dimension dim="1">ion</dimension>
   <field type="string">element</field>
   <field type="int">atomtype</field>
   <set>
    <rc><c>C </c><c>   1</c></rc>
    <rc><c>C </c><c>   1</c></rc>
    <rc><c>C </c><c>   1</c></rc>
    <rc><c>C </c><c>   1</c></rc>
    <rc><c>C </c><c>   1</c></rc>
    <rc><c>C </c><c>   1</c></rc>
    <rc><c>H </c><c>   2</c></rc>
    <rc><c>H </c><c>   2</c></rc>
    <rc><c>H </c><c>   2</c></rc>
    <rc><c>H </c><c>   2</c></rc>
    <rc><c>H </c><c>   2</c></rc>
    <rc><c>H </c><c>   2</c></rc>
   </set>
  </array>
  <array name="atomtypes" >
   <dimension dim="1">type</dimension>
   <field type="int">atomspertype</field>
   <field type="string">element</field>
   <field>mass</field>
   <field>valence</field>
   <field type="string">pseudopotential</field>
   <set>
    <rc><c>   6</c><c>C </c><c>     12.01100000</c><c>      4.00000000</c><c>  PAW_PBE C 08Apr2002                   </c></rc>
    <rc><c>   6</c><c>H </c><c>      1.00000000</c><c>      1.00000000</c><c>  PAW_PBE H 15Jun2001                   </c></rc>
   </set>
  </array>
 </atominfo>
 <structure name="initialpos" >
  <crystal>
   <varray name="basis" >
    <v>      10.58354422       0.00000000       0.00000000 </v>
    <v>       0.00000000      10.58354422       0.00000000 </v>
    <v>       0.00000000       0.00000000      10.58354422 </v>
   </varray>
   <i name="volume">   1185.47769178 </i>
   <varray name="rec_basis" >
    <v>       0.09448631       0.00000000       0.00000000 </v>
    <v>       0.00000000       0.09448631       0.00000000 </v>
    <v>       0.00000000       0.00000000       0.09448631 </v>
   </varray>
  </crystal>
  <varray name="positions" >
   <v>       0.49924810       0.63541050       0.50063985 </v>
   <v>       0.39084735       0.56539500       0.50193875 </v>
   <v>       0.38746230       0.43068390       0.49336035 </v>
   <v>       0.49653660       0.36489715       0.50454355 </v>
   <v>       0.61790255       0.42906760       0.50171815 </v>
   <v>       0.61369500       0.56499950       0.50114980 </v>
   <v>       0.48720580       0.73455980       0.50035775 </v>
   <v>       0.30740300       0.62213090       0.50949560 </v>
   <v>       0.29628765       0.38342430       0.48658145 </v>
   <v>       0.49212760       0.26402945       0.50845765 </v>
   <v>       0.70874715       0.38720330       0.49926535 </v>
   <v>       0.70253695       0.61819840       0.49249175 </v>
  </varray>
 </structure>
 <calculation>
  <scstep>
   <time name="dav">    0.22    0.22</time>
   <time name="total">    0.49    0.50</time>
   <energy>
    <i name="alphaZ">      3.48814018 </i>
    <i name="ewald">   1121.08114380 </i>
    <i name="hartreedc">  -1755.84203438 </i>
    <i name="XCdc">     91.24175267 </i>
    <i name="pawpsdc">    663.93644290 </i>
    <i name="pawaedc">   -667.40614445 </i>
    <i name="eentropy">     -0.00000000 </i>
    <i name="bandstr">   -199.46022654 </i>
    <i name="atom">    957.82965714 </i>
    <i name="e_fr_energy">    214.86873131 </i>
    <i name="e_wo_entrp">    214.86873131 </i>
    <i name="e_0_energy">    214.86873131 </i>
   </energy>
  </scstep>
  <scstep>
   <time name="dav">    0.26    0.26</time>
   <time name="total">    0.26    0.26</time>
   <energy>
    <i name="e_fr_energy">     -2.67425194 </i>
    <i name="e_wo_entrp">     -2.67425194 </i>
    <i name="e_0_energy">     -2.67425194 </i>
   </energy>
  </scstep>
  <scstep>
   <time name="dav">    0.22    0.22</time>
   <time name="total">    0.22    0.22</time>
   <energy>
    <i name="e_fr_energy">    -77.95258071 </i>
    <i name="e_wo_entrp">    -77.95258071 </i>
    <i name="e_0_energy">    -77.95258071 </i>
   </energy>
  </scstep>
  <scstep>
   <time name="dav">    0.19    0.20</time>
   <time name="total">    0.19    0.20</time>
   <energy>
    <i name="e_fr_energy">    -83.64690935 </i>
    <i name="e_wo_entrp">    -83.64690935 </i>
    <i name="e_0_energy">    -83.64690935 </i>
   </energy>
  </scstep>
  <scstep>
   <time name="dav">    0.26    0.26</time>
   <time name="total">    0.30    0.30</time>
   <energy>
    <i name="e_fr_energy">    -83.76287864 </i>
    <i name="e_wo_entrp">    -83.76287864 </i>
    <i name="e_0_energy">    -83.76287864 </i>
   </energy>
  </scstep>
  <scstep>
   <time name="dav">    0.23    0.23</time>
   <time name="total">    0.53    0.54</time>
   <energy>
    <i name="e_fr_energy">    -77.55357553 </i>
    <i name="e_wo_entrp">    -77.55357553 </i>
    <i name="e_0_energy">    -77.55357553 </i>
   </energy>
  </scstep>
  <scstep>
   <time name="dav">    0.26    0.26</time>
   <time name="total">    0.57    0.57</time>
   <energy>
    <i name="e_fr_energy">    -75.73102642 </i>
    <i name="e_wo_entrp">    -75.73102642 </i>
    <i name="e_0_energy">    -75.73102642 </i>
   </energy>
  </scstep>
  <scstep>
   <time name="dav">    0.26    0.26</time>
   <time name="total">    0.57    0.57</time>
   <energy>
    <i name="e_fr_energy">    -75.55973167 </i>
    <i name="e_wo_entrp">    -75.55973167 </i>
    <i name="e_0_energy">    -75.55973167 </i>
   </energy>
  </scstep>
  <scstep>
   <time name="dav">    0.22    0.22</time>
   <time name="total">    0.52    0.53</time>
   <energy>
    <i name="e_fr_energy">    -75.52949619 </i>
    <i name="e_wo_entrp">    -75.52949619 </i>
    <i name="e_0_energy">    -75.52949619 </i>
   </energy>
  </scstep>
  <scstep>
   <time name="dav">    0.24    0.24</time>
   <time name="total">    0.54    0.55</time>
   <energy>
    <i name="e_fr_energy">    -75.52405727 </i>
    <i name="e_wo_entrp">    -75.52405727 </i>
    <i name="e_0_energy">    -75.52405727 </i>
   </energy>
  </scstep>
  <scstep>
   <time name="dav">    0.20    0.20</time>
   <time name="total">    0.51    0.51</time>
   <energy>
    <i name="e_fr_energy">    -75.51677041 </i>
    <i name="e_wo_entrp">    -75.51677041 </i>
    <i name="e_0_energy">    -75.51677041 </i>
   </energy>
  </scstep>
  <scstep>
   <time name="dav">    0.22    0.22</time>
   <time name="total">    0.51    0.51</time>
   <energy>
    <i name="e_fr_energy">    -75.52116015 </i>
    <i name="e_wo_entrp">    -75.52116015 </i>
    <i name="e_0_energy">    -75.52116015 </i>
   </energy>
  </scstep>
  <scstep>
   <time name="dav">    0.20    0.20</time>
   <time name="total">    0.49    0.49</time>
   <energy>
    <i name="e_fr_energy">    -75.53166951 </i>
    <i name="e_wo_entrp">    -75.53166951 </i>
    <i name="e_0_energy">    -75.53166951 </i>
   </energy>
  </scstep>
  <scstep>
   <time name="dav">    0.22    0.22</time>
   <time name="total">    0.50    0.51</time>
   <energy>
    <i name="e_fr_energy">    -75.53822827 </i>
    <i name="e_wo_entrp">    -75.53822827 </i>
    <i name="e_0_energy">    -75.53822827 </i>
   </energy>
  </scstep>
  <scstep>
   <time name="dav">    0.22    0.22</time>
   <time name="total">    0.50    0.51</time>
   <energy>
    <i name="e_fr_energy">    -75.54102112 </i>
    <i name="e_wo_entrp">    -75.54102112 </i>
    <i name="e_0_energy">    -75.54102112 </i>
   </energy>
  </scstep>
  <scstep>
   <time name="dav">    0.22    0.22</time>
   <time name="total">    0.50    0.51</time>
   <energy>
    <i name="e_fr_energy">    -75.54222791 </i>
    <i name="e_wo_entrp">    -75.54222791 </i>
    <i name="e_0_energy">    -75.54222791 </i>
   </energy>
  </scstep>
  <scstep>
   <time name="dav">    0.22    0.22</time>
   <time name="total">    0.51    0.51</time>
   <energy>
    <i name="e_fr_energy">    -75.54277918 </i>
    <i name="e_wo_entrp">    -75.54277918 </i>
    <i name="e_0_energy">    -75.54277918 </i>
   </energy>
  </scstep>
  <scstep>
   <time name="dav">    0.22    0.22</time>
   <time name="total">    0.52    0.53</time>
   <energy>
    <i name="e_fr_energy">    -75.54289013 </i>
    <i name="e_wo_entrp">    -75.54289013 </i>
    <i name="e_0_energy">    -75.54289013 </i>
   </energy>
  </scstep>
  <scstep>
   <time name="dav">    0.20    0.20</time>
   <time name="total">    0.49    0.50</time>
   <energy>
    <i name="e_fr_energy">    -75.54292372 </i>
    <i name="e_wo_entrp">    -75.54292372 </i>
    <i name="e_0_energy">    -75.54292372 </i>
   </energy>
  </scstep>
  <scstep>
   <time name="dav">    0.20    0.20</time>
   <time name="total">    0.50    0.50</time>
   <energy>
    <i name="e_fr_energy">    -75.54293514 </i>
    <i name="e_wo_entrp">    -75.54293514 </i>
    <i name="e_0_energy">    -75.54293514 </i>
   </energy>
  </scstep>
  <scstep>
   <time name="dav">    0.20    0.20</time>
   <time name="total">    0.50    0.50</time>
   <energy>
    <i name="e_fr_energy">    -75.54294018 </i>
    <i name="e_wo_entrp">    -75.54294018 </i>
    <i name="e_0_energy">    -75.54294018 </i>
   </energy>
  </scstep>
  <scstep>
   <time name="dav">    0.20    0.20</time>
   <time name="total">    0.46    0.46</time>
   <energy>
    <i name="alphaZ">      3.48814018 </i>
    <i name="ewald">   1121.08114380 </i>
    <i name="hartreedc">  -1902.53747932 </i>
    <i name="XCdc">     98.18512073 </i>
    <i name="pawpsdc">   2482.13241627 </i>
    <i name="pawaedc">  -2486.39037323 </i>
    <i name="eentropy">     -0.00000000 </i>
    <i name="bandstr">   -349.33156652 </i>
    <i name="atom">    957.82965714 </i>
    <i name="e_fr_energy">    -75.54294094 </i>
    <i name="e_wo_entrp">    -75.54294094 </i>
    <i name="e_0_energy">    -75.54294094 </i>
   </energy>
  </scstep>
  <structure>
   <crystal>
    <varray name="basis" >
     <v>      10.58354422       0.00000000       0.00000000 </v>
     <v>       0.00000000      10.58354422       0.00000000 </v>
     <v>       0.00000000       0.00000000      10.58354422 </v>
    </varray>
    <i name="volume">   1185.47769178 </i>
    <varray name="rec_basis" >
     <v>       0.09448631       0.00000000       0.00000000 </v>
     <v>       0.00000000       0.09448631       0.00000000 </v>
     <v>       0.00000000       0.00000000       0.09448631 </v>
    </varray>
   </crystal>
   <varray name="positions" >
    <v>       0.49924810       0.63541050       0.50063985 </v>
    <v>       0.39084735       0.56539500       0.50193875 </v>
    <v>       0.38746230       0.43068390       0.49336035 </v>
    <v>       0.49653660       0.36489715       0.50454355 </v>
    <v>       0.61790255       0.42906760       0.50171815 </v>
    <v>       0.61369500       0.56499950       0.50114980 </v>
    <v>       0.48720580       0.73455980       0.50035775 </v>
    <v>       0.30740300       0.62213090       0.50949560 </v>
    <v>       0.29628765       0.38342430       0.48658145 </v>
    <v>       0.49212760       0.26402945       0.50845765 </v>
    <v>       0.70874715       0.38720330       0.49926535 </v>
    <v>       0.70253695       0.61819840       0.49249175 </v>
   </varray>
  </structure>
  <varray name="forces" >
   <v>       1.23259458      -2.43215226       0.26079419 </v>
   <v>      -0.92278738      -0.93954747      -0.37370317 </v>
   <v>      -1.12746485       2.08078339       0.64850198 </v>
   <v>       2.92516391       0.11911458      -0.49388349 </v>
   <v>      -2.91755319       2.41590200       0.29753626 </v>
   <v>       0.48220030      -0.38232050      -0.52491585 </v>
   <v>       0.53785970       1.23666240       0.07851736 </v>
   <v>      -1.06092336      -0.07507152      -0.19183676 </v>
   <v>      -0.01749694      -0.06695364       0.12370192 </v>
   <v>       0.15967353      -0.83192693      -0.07252718 </v>
   <v>       0.76056353      -0.86809109       0.09206782 </v>
   <v>      -0.05182984      -0.25639896       0.15574691 </v>
  </varray>
  <varray name="stress" >
   <v>       3.67558861      -1.47190874       0.09742845 </v>
   <v>      -1.47190874      -3.07559609      -0.23995571 </v>
   <v>       0.09742845      -0.23995572      -0.35395561 </v>
  </varray>
  <energy>
   <i name="e_fr_energy">    -75.54294094 </i>
   <i name="e_wo_entrp">    -75.54294094 </i>
   <i name="e_0_energy">    -75.54294094 </i>
  </energy>
  <time name="totalsc">   15.56   15.76</time>
  <eigenvalues>
   <array>
    <dimension dim="1">band</dimension>
    <dimension dim="2">kpoint</dimension>
    <dimension dim="3">spin</dimension>
    <field>eigene</field>
    <field>occ</field>
    <set>
     <set comment="spin 1">
      <set comment="kpoint 1">
       <r>  -20.6659    1.0000 </r>
       <r>  -18.1822    1.0000 </r>
       <r>  -17.7822    1.0000 </r>
       <r>  -14.4439    1.0000 </r>
       <r>  -14.3512    1.0000 </r>
       <r>  -12.4782    1.0000 </r>
       <r>  -10.9327    1.0000 </r>
       <r>  -10.3482    1.0000 </r>
       <r>  -10.0007    1.0000 </r>
       <r>   -9.6378    1.0000 </r>
       <r>   -8.5779    1.0000 </r>
       <r>   -7.9227    1.0000 </r>
       <r>   -7.6170    1.0000 </r>
       <r>   -6.0123    1.0000 </r>
       <r>   -5.7130    1.0000 </r>
       <r>   -1.0075    0.0000 </r>
       <r>   -0.8102    0.0000 </r>
       <r>   -0.4129    0.0000 </r>
       <r>    0.7218    0.0000 </r>
       <r>    0.8495    0.0000 </r>
       <r>    0.8654    0.0000 </r>
       <r>    0.9258    0.0000 </r>
       <r>    0.9932    0.0000 </r>
       <r>    1.4505    0.0000 </r>
      </set>
     </set>
    </set>
   </array>
  </eigenvalues>
  <separator name="orbital magnetization" >
   <v name="MAGDIPOLOUT">      0.00000000      0.00000000      0.00000000</v>
  </separator>
  <dos>
   <i name="efermi">     -5.46181118 </i>
   <total>
    <array>
     <dimension dim="1">gridpoints</dimension>
     <dimension dim="2">spin</dimension>
     <field>energy</field>
     <field>total</field>
     <field>integrated</field>
     <set>
      <set comment="spin 1">
       <r>   -21.7718     0.0000     0.0000 </r>
       <r>   -21.6907     0.0000     0.0000 </r>
       <r>   -21.6096     0.0000     0.0000 </r>
       <r>   -21.5285     0.0000     0.0000 </r>
       <r>   -21.4474     0.0000     0.0000 </r>
       <r>   -21.3663     0.0000     0.0000 </r>
       <r>   -21.2852     0.0000     0.0000 </r>
       <r>   -21.2041     0.0000     0.0000 </r>
       <r>   -21.1230     0.0000     0.0000 </r>
       <r>   -21.0419     0.0000     0.0000 </r>
       <r>   -20.9608     0.0000     0.0000 </r>
       <r>   -20.8797     0.0000     0.0000 </r>
       <r>   -20.7986     0.0022     0.0002 </r>
       <r>   -20.7175     1.7785     0.1444 </r>
       <r>   -20.6364    17.8973     1.5958 </r>
       <r>   -20.5554     4.9632     1.9982 </r>
       <r>   -20.4743     0.0217     2.0000 </r>
       <r>   -20.3932     0.0000     2.0000 </r>
       <r>   -20.3121     0.0000     2.0000 </r>
       <r>   -20.2310     0.0000     2.0000 </r>
       <r>   -20.1499     0.0000     2.0000 </r>
       <r>   -20.0688     0.0000     2.0000 </r>
       <r>   -19.9877     0.0000     2.0000 </r>
       <r>   -19.9066     0.0000     2.0000 </r>
       <r>   -19.8255     0.0000     2.0000 </r>
       <r>   -19.7444     0.0000     2.0000 </r>
       <r>   -19.6633     0.0000     2.0000 </r>
       <r>   -19.5822     0.0000     2.0000 </r>
       <r>   -19.5011     0.0000     2.0000 </r>
       <r>   -19.4200     0.0000     2.0000 </r>
       <r>   -19.3390     0.0000     2.0000 </r>
       <r>   -19.2579     0.0000     2.0000 </r>
       <r>   -19.1768     0.0000     2.0000 </r>
       <r>   -19.0957     0.0000     2.0000 </r>
       <r>   -19.0146     0.0000     2.0000 </r>
       <r>   -18.9335     0.0000     2.0000 </r>
       <r>   -18.8524     0.0000     2.0000 </r>
       <r>   -18.7713     0.0000     2.0000 </r>
       <r>   -18.6902     0.0000     2.0000 </r>
       <r>   -18.6091     0.0000     2.0000 </r>
       <r>   -18.5280     0.0000     2.0000 </r>
       <r>   -18.4469     0.0000     2.0000 </r>
       <r>   -18.3658     0.0000     2.0000 </r>
       <r>   -18.2847     0.0458     2.0037 </r>
       <r>   -18.2036     6.6548     2.5434 </r>
       <r>   -18.1225    16.8302     3.9082 </r>
       <r>   -18.0415     1.1312     3.9999 </r>
       <r>   -17.9604     0.0009     4.0000 </r>
       <r>   -17.8793     0.0748     4.0061 </r>
       <r>   -17.7982     7.9678     4.6522 </r>
       <r>   -17.7171    15.8147     5.9347 </r>
       <r>   -17.6360     0.8052     6.0000 </r>
       <r>   -17.5549     0.0004     6.0000 </r>
       <r>   -17.4738     0.0000     6.0000 </r>
       <r>   -17.3927     0.0000     6.0000 </r>
       <r>   -17.3116     0.0000     6.0000 </r>
       <r>   -17.2305     0.0000     6.0000 </r>
       <r>   -17.1494     0.0000     6.0000 </r>
       <r>   -17.0683     0.0000     6.0000 </r>
       <r>   -16.9872     0.0000     6.0000 </r>
       <r>   -16.9061     0.0000     6.0000 </r>
       <r>   -16.8250     0.0000     6.0000 </r>
       <r>   -16.7440     0.0000     6.0000 </r>
       <r>   -16.6629     0.0000     6.0000 </r>
       <r>   -16.5818     0.0000     6.0000 </r>
       <r>   -16.5007     0.0000     6.0000 </r>
       <r>   -16.4196     0.0000     6.0000 </r>
       <r>   -16.3385     0.0000     6.0000 </r>
       <r>   -16.2574     0.0000     6.0000 </r>
       <r>   -16.1763     0.0000     6.0000 </r>
       <r>   -16.0952     0.0000     6.0000 </r>
       <r>   -16.0141     0.0000     6.0000 </r>
       <r>   -15.9330     0.0000     6.0000 </r>
       <r>   -15.8519     0.0000     6.0000 </r>
       <r>   -15.7708     0.0000     6.0000 </r>
       <r>   -15.6897     0.0000     6.0000 </r>
       <r>   -15.6086     0.0000     6.0000 </r>
       <r>   -15.5276     0.0000     6.0000 </r>
       <r>   -15.4465     0.0000     6.0000 </r>
       <r>   -15.3654     0.0000     6.0000 </r>
       <r>   -15.2843     0.0000     6.0000 </r>
       <r>   -15.2032     0.0000     6.0000 </r>
       <r>   -15.1221     0.0000     6.0000 </r>
       <r>   -15.0410     0.0000     6.0000 </r>
       <r>   -14.9599     0.0000     6.0000 </r>
       <r>   -14.8788     0.0000     6.0000 </r>
       <r>   -14.7977     0.0000     6.0000 </r>
       <r>   -14.7166     0.0000     6.0000 </r>
       <r>   -14.6355     0.0000     6.0000 </r>
       <r>   -14.5544     0.0218     6.0018 </r>
       <r>   -14.4733     4.9770     6.4054 </r>
       <r>   -14.3922    20.9141     8.1014 </r>
       <r>   -14.3111    20.2352     9.7423 </r>
       <r>   -14.2301     3.1701     9.9994 </r>
       <r>   -14.1490     0.0076    10.0000 </r>
       <r>   -14.0679     0.0000    10.0000 </r>
       <r>   -13.9868     0.0000    10.0000 </r>
       <r>   -13.9057     0.0000    10.0000 </r>
       <r>   -13.8246     0.0000    10.0000 </r>
       <r>   -13.7435     0.0000    10.0000 </r>
       <r>   -13.6624     0.0000    10.0000 </r>
       <r>   -13.5813     0.0000    10.0000 </r>
       <r>   -13.5002     0.0000    10.0000 </r>
       <r>   -13.4191     0.0000    10.0000 </r>
       <r>   -13.3380     0.0000    10.0000 </r>
       <r>   -13.2569     0.0000    10.0000 </r>
       <r>   -13.1758     0.0000    10.0000 </r>
       <r>   -13.0947     0.0000    10.0000 </r>
       <r>   -13.0137     0.0000    10.0000 </r>
       <r>   -12.9326     0.0000    10.0000 </r>
       <r>   -12.8515     0.0000    10.0000 </r>
       <r>   -12.7704     0.0000    10.0000 </r>
       <r>   -12.6893     0.0000    10.0000 </r>
       <r>   -12.6082     0.0029    10.0002 </r>
       <r>   -12.5271     2.0563    10.1670 </r>
       <r>   -12.4460    18.1408    11.6381 </r>
       <r>   -12.3649     4.4463    11.9987 </r>
       <r>   -12.2838     0.0166    12.0000 </r>
       <r>   -12.2027     0.0000    12.0000 </r>
       <r>   -12.1216     0.0000    12.0000 </r>
       <r>   -12.0405     0.0000    12.0000 </r>
       <r>   -11.9594     0.0000    12.0000 </r>
       <r>   -11.8783     0.0000    12.0000 </r>
       <r>   -11.7972     0.0000    12.0000 </r>
       <r>   -11.7162     0.0000    12.0000 </r>
       <r>   -11.6351     0.0000    12.0000 </r>
       <r>   -11.5540     0.0000    12.0000 </r>
       <r>   -11.4729     0.0000    12.0000 </r>
       <r>   -11.3918     0.0000    12.0000 </r>
       <r>   -11.3107     0.0000    12.0000 </r>
       <r>   -11.2296     0.0000    12.0000 </r>
       <r>   -11.1485     0.0000    12.0000 </r>
       <r>   -11.0674     0.0017    12.0001 </r>
       <r>   -10.9863     1.5906    12.1291 </r>
       <r>   -10.9052    17.6733    13.5623 </r>
       <r>   -10.8241     5.3708    13.9979 </r>
       <r>   -10.7430     0.0264    14.0000 </r>
       <r>   -10.6619     0.0000    14.0000 </r>
       <r>   -10.5808     0.0000    14.0000 </r>
       <r>   -10.4997     0.0002    14.0000 </r>
       <r>   -10.4187     0.5688    14.0461 </r>
       <r>   -10.3376    14.6666    15.2355 </r>
       <r>   -10.2565     9.3100    15.9905 </r>
       <r>   -10.1754     0.1172    16.0000 </r>
       <r>   -10.0943     0.1001    16.0081 </r>
       <r>   -10.0132     8.8249    16.7238 </r>
       <r>    -9.9321    15.0923    17.9476 </r>
       <r>    -9.8510     0.6453    18.0000 </r>
       <r>    -9.7699     0.0026    18.0002 </r>
       <r>    -9.6888     1.8389    18.1493 </r>
       <r>    -9.6077    17.9584    19.6056 </r>
       <r>    -9.5266     4.8429    19.9983 </r>
       <r>    -9.4455     0.0205    20.0000 </r>
       <r>    -9.3644     0.0000    20.0000 </r>
       <r>    -9.2833     0.0000    20.0000 </r>
       <r>    -9.2023     0.0000    20.0000 </r>
       <r>    -9.1212     0.0000    20.0000 </r>
       <r>    -9.0401     0.0000    20.0000 </r>
       <r>    -8.9590     0.0000    20.0000 </r>
       <r>    -8.8779     0.0000    20.0000 </r>
       <r>    -8.7968     0.0000    20.0000 </r>
       <r>    -8.7157     0.0012    20.0001 </r>
       <r>    -8.6346     1.3403    20.1088 </r>
       <r>    -8.5535    17.2766    21.5098 </r>
       <r>    -8.4724     6.0097    21.9972 </r>
       <r>    -8.3913     0.0351    22.0000 </r>
       <r>    -8.3102     0.0000    22.0000 </r>
       <r>    -8.2291     0.0000    22.0000 </r>
       <r>    -8.1480     0.0000    22.0000 </r>
       <r>    -8.0669     0.0006    22.0000 </r>
       <r>    -7.9858     0.9148    22.0742 </r>
       <r>    -7.9048    16.2115    23.3889 </r>
       <r>    -7.8237     7.4734    23.9949 </r>
       <r>    -7.7426     0.0673    24.0004 </r>
       <r>    -7.6615     2.5600    24.2080 </r>
       <r>    -7.5804    18.3878    25.6991 </r>
       <r>    -7.4993     3.6996    25.9991 </r>
       <r>    -7.4182     0.0108    26.0000 </r>
       <r>    -7.3371     0.0000    26.0000 </r>
       <r>    -7.2560     0.0000    26.0000 </r>
       <r>    -7.1749     0.0000    26.0000 </r>
       <r>    -7.0938     0.0000    26.0000 </r>
       <r>    -7.0127     0.0000    26.0000 </r>
       <r>    -6.9316     0.0000    26.0000 </r>
       <r>    -6.8505     0.0000    26.0000 </r>
       <r>    -6.7694     0.0000    26.0000 </r>
       <r>    -6.6884     0.0000    26.0000 </r>
       <r>    -6.6073     0.0000    26.0000 </r>
       <r>    -6.5262     0.0000    26.0000 </r>
       <r>    -6.4451     0.0000    26.0000 </r>
       <r>    -6.3640     0.0000    26.0000 </r>
       <r>    -6.2829     0.0000    26.0000 </r>
       <r>    -6.2018     0.0000    26.0000 </r>
       <r>    -6.1207     0.0267    26.0022 </r>
       <r>    -6.0396     5.3944    26.4396 </r>
       <r>    -5.9585    17.6596    27.8717 </r>
       <r>    -5.8774     1.5805    27.9999 </r>
       <r>    -5.7963     0.2283    28.0184 </r>
       <r>    -5.7152    11.4732    28.9488 </r>
       <r>    -5.6341    12.6451    29.9742 </r>
       <r>    -5.5530     0.3179    30.0000 </r>
       <r>    -5.4719     0.0001    30.0000 </r>
       <r>    -5.3909     0.0000    30.0000 </r>
       <r>    -5.3098     0.0000    30.0000 </r>
       <r>    -5.2287     0.0000    30.0000 </r>
       <r>    -5.1476     0.0000    30.0000 </r>
       <r>    -5.0665     0.0000    30.0000 </r>
       <r>    -4.9854     0.0000    30.0000 </r>
       <r>    -4.9043     0.0000    30.0000 </r>
       <r>    -4.8232     0.0000    30.0000 </r>
       <r>    -4.7421     0.0000    30.0000 </r>
       <r>    -4.6610     0.0000    30.0000 </r>
       <r>    -4.5799     0.0000    30.0000 </r>
       <r>    -4.4988     0.0000    30.0000 </r>
       <r>    -4.4177     0.0000    30.0000 </r>
       <r>    -4.3366     0.0000    30.0000 </r>
       <r>    -4.2555     0.0000    30.0000 </r>
       <r>    -4.1745     0.0000    30.0000 </r>
       <r>    -4.0934     0.0000    30.0000 </r>
       <r>    -4.0123     0.0000    30.0000 </r>
       <r>    -3.9312     0.0000    30.0000 </r>
       <r>    -3.8501     0.0000    30.0000 </r>
       <r>    -3.7690     0.0000    30.0000 </r>
       <r>    -3.6879     0.0000    30.0000 </r>
       <r>    -3.6068     0.0000    30.0000 </r>
       <r>    -3.5257     0.0000    30.0000 </r>
       <r>    -3.4446     0.0000    30.0000 </r>
       <r>    -3.3635     0.0000    30.0000 </r>
       <r>    -3.2824     0.0000    30.0000 </r>
       <r>    -3.2013     0.0000    30.0000 </r>
       <r>    -3.1202     0.0000    30.0000 </r>
       <r>    -3.0391     0.0000    30.0000 </r>
       <r>    -2.9580     0.0000    30.0000 </r>
       <r>    -2.8770     0.0000    30.0000 </r>
       <r>    -2.7959     0.0000    30.0000 </r>
       <r>    -2.7148     0.0000    30.0000 </r>
       <r>    -2.6337     0.0000    30.0000 </r>
       <r>    -2.5526     0.0000    30.0000 </r>
       <r>    -2.4715     0.0000    30.0000 </r>
       <r>    -2.3904     0.0000    30.0000 </r>
       <r>    -2.3093     0.0000    30.0000 </r>
       <r>    -2.2282     0.0000    30.0000 </r>
       <r>    -2.1471     0.0000    30.0000 </r>
       <r>    -2.0660     0.0000    30.0000 </r>
       <r>    -1.9849     0.0000    30.0000 </r>
       <r>    -1.9038     0.0000    30.0000 </r>
       <r>    -1.8227     0.0000    30.0000 </r>
       <r>    -1.7416     0.0000    30.0000 </r>
       <r>    -1.6605     0.0000    30.0000 </r>
       <r>    -1.5795     0.0000    30.0000 </r>
       <r>    -1.4984     0.0000    30.0000 </r>
       <r>    -1.4173     0.0000    30.0000 </r>
       <r>    -1.3362     0.0000    30.0000 </r>
       <r>    -1.2551     0.0000    30.0000 </r>
       <r>    -1.1740     0.0000    30.0000 </r>
       <r>    -1.0929     0.1935    30.0157 </r>
       <r>    -1.0118    10.9381    30.9027 </r>
       <r>    -0.9307    13.1705    31.9708 </r>
       <r>    -0.8496     3.6286    32.2650 </r>
       <r>    -0.7685    18.4554    33.7616 </r>
       <r>    -0.6874     2.9331    33.9995 </r>
       <r>    -0.6063     0.0064    34.0000 </r>
       <r>    -0.5252     0.0184    34.0015 </r>
       <r>    -0.4441     4.6370    34.3775 </r>
       <r>    -0.3631    18.0568    35.8418 </r>
       <r>    -0.2820     1.9480    35.9998 </r>
       <r>    -0.2009     0.0026    36.0000 </r>
       <r>    -0.1198     0.0000    36.0000 </r>
       <r>    -0.0387     0.0000    36.0000 </r>
       <r>     0.0424     0.0000    36.0000 </r>
       <r>     0.1235     0.0000    36.0000 </r>
       <r>     0.2046     0.0000    36.0000 </r>
       <r>     0.2857     0.0000    36.0000 </r>
       <r>     0.3668     0.0000    36.0000 </r>
       <r>     0.4479     0.0000    36.0000 </r>
       <r>     0.5290     0.0000    36.0000 </r>
       <r>     0.6101     0.0194    36.0016 </r>
       <r>     0.6912     4.7432    36.3862 </r>
       <r>     0.7723    18.4684    37.8839 </r>
       <r>     0.8534    24.3817    39.8611 </r>
       <r>     0.9344    41.4480    43.2223 </r>
       <r>     1.0155    27.6019    45.4606 </r>
       <r>     1.0966     6.6091    45.9965 </r>
       <r>     1.1777     0.0426    46.0000 </r>
       <r>     1.2588     0.0000    46.0000 </r>
       <r>     1.3399     0.0217    46.0018 </r>
       <r>     1.4210     4.9632    46.4042 </r>
       <r>     1.5021    17.8973    47.8556 </r>
       <r>     1.5832     1.7785    47.9998 </r>
       <r>     1.6643     0.0022    48.0000 </r>
       <r>     1.7454     0.0000    48.0000 </r>
       <r>     1.8265     0.0000    48.0000 </r>
       <r>     1.9076     0.0000    48.0000 </r>
       <r>     1.9887     0.0000    48.0000 </r>
       <r>     2.0698     0.0000    48.0000 </r>
       <r>     2.1508     0.0000    48.0000 </r>
       <r>     2.2319     0.0000    48.0000 </r>
       <r>     2.3130     0.0000    48.0000 </r>
       <r>     2.3941     0.0000    48.0000 </r>
       <r>     2.4752     0.0000    48.0000 </r>
       <r>     2.5563     0.0000    48.0000 </r>
      </set>
     </set>
    </array>
   </total>
  </dos>
 </calculation>
 <structure name="finalpos" >
  <crystal>
   <varray name="basis" >
    <v>      10.58354422       0.00000000       0.00000000 </v>
    <v>       0.00000000      10.58354422       0.00000000 </v>
    <v>       0.00000000       0.00000000      10.58354422 </v>
   </varray>
   <i name="volume">   1185.47769178 </i>
   <varray name="rec_basis" >
    <v>       0.09448631       0.00000000       0.00000000 </v>
    <v>       0.00000000       0.09448631       0.00000000 </v>
    <v>       0.00000000       0.00000000       0.09448631 </v>
   </varray>
  </crystal>
  <varray name="positions" >
   <v>       0.49924810       0.63541050       0.50063985 </v>
   <v>       0.39084735       0.56539500       0.50193875 </v>
   <v>       0.38746230       0.43068390       0.49336035 </v>
   <v>       0.49653660       0.36489715       0.50454355 </v>
   <v>       0.61790255       0.42906760       0.50171815 </v>
   <v>       0.61369500       0.56499950       0.50114980 </v>
   <v>       0.48720580       0.73455980       0.50035775 </v>
   <v>       0.30740300       0.62213090       0.50949560 </v>
   <v>       0.29628765       0.38342430       0.48658145 </v>
   <v>       0.49212760       0.26402945       0.50845765 </v>
   <v>       0.70874715       0.38720330       0.49926535 </v>
   <v>       0.70253695       0.61819840       0.49249175 </v>
  </varray>
 </structure>
</modeling>
