<?xml version="1.0" encoding="ISO-8859-1"?>
<modeling>
 <generator>
  <i name="program" type="string">vasp </i>
  <i name="version" type="string">6.2.0  </i>
  <i name="subversion" type="string">18Jan21 (build Mar 25 2021 14:28:09) complex                          parallel </i>
  <i name="platform" type="string">LinuxGNU </i>
  <i name="date" type="string">2021 12 20 </i>
  <i name="time" type="string">09:49:17 </i>
 </generator>
 <incar>
  <i type="string" name="SYSTEM">benzene</i>
  <i type="int" name="ISTART">     0</i>
  <i type="string" name="PREC">Accurate</i>
  <i type="string" name="ALGO">Normal</i>
  <i type="int" name="NELM">   200</i>
  <i type="int" name="IBRION">    -1</i>
  <i name="EDIFF">      0.00000100</i>
  <i type="int" name="NSW">     0</i>
  <i name="ENCUT">    600.00000000</i>
  <i type="logical" name="LREAL"> F  </i>
  <i type="int" name="ISMEAR">     0</i>
  <i name="SIGMA">      0.05000000</i>
  <i type="logical" name="LWAVE"> F  </i>
  <i type="logical" name="LCHARG"> T  </i>
  <i type="string" name="GGA">PE</i>
 </incar>
 <primitive_cell>
  <structure name="primitive_cell" >
   <crystal>
    <varray name="basis" >
     <v>      10.58354422       0.00000000       0.00000000 </v>
     <v>       0.00000000      10.58354422       0.00000000 </v>
     <v>       0.00000000       0.00000000      10.58354422 </v>
    </varray>
    <i name="volume">   1185.47769178 </i>
    <varray name="rec_basis" >
     <v>       0.09448631       0.00000000       0.00000000 </v>
     <v>       0.00000000       0.09448631       0.00000000 </v>
     <v>       0.00000000       0.00000000       0.09448631 </v>
    </varray>
   </crystal>
   <varray name="positions" >
    <v>       0.50093805       0.63114980       0.50150345 </v>
    <v>       0.38876410       0.56619605       0.49741795 </v>
    <v>       0.38606955       0.43372960       0.50483675 </v>
    <v>       0.50244265       0.36768535       0.49890370 </v>
    <v>       0.61936220       0.43518890       0.49743680 </v>
    <v>       0.61989095       0.56773280       0.50237045 </v>
    <v>       0.49615600       0.73429115       0.49813265 </v>
    <v>       0.29182070       0.60957330       0.49820485 </v>
    <v>       0.29774860       0.38972930       0.49896605 </v>
    <v>       0.48859180       0.26399790       0.50374515 </v>
    <v>       0.70614465       0.38416075       0.49398565 </v>
    <v>       0.70207075       0.61656500       0.50449660 </v>
   </varray>
  </structure>
  <varray name="primitive_index" >
   <v type="int" >        1 </v>
   <v type="int" >        2 </v>
   <v type="int" >        3 </v>
   <v type="int" >        4 </v>
   <v type="int" >        5 </v>
   <v type="int" >        6 </v>
   <v type="int" >        7 </v>
   <v type="int" >        8 </v>
   <v type="int" >        9 </v>
   <v type="int" >       10 </v>
   <v type="int" >       11 </v>
   <v type="int" >       12 </v>
  </varray>
 </primitive_cell>
 <kpoints>
  <generation param="Gamma">
   <v type="int" name="divisions">       1        1        1 </v>
   <v name="usershift">      0.00000000       0.00000000       0.00000000 </v>
   <v name="genvec1">      1.00000000       0.00000000       0.00000000 </v>
   <v name="genvec2">      0.00000000       1.00000000       0.00000000 </v>
   <v name="genvec3">      0.00000000       0.00000000       1.00000000 </v>
   <v name="shift">      0.00000000       0.00000000       0.00000000 </v>
  </generation>
  <varray name="kpointlist" >
   <v>       0.00000000       0.00000000       0.00000000 </v>
  </varray>
  <varray name="weights" >
   <v>       1.00000000 </v>
  </varray>
 </kpoints>
 <parameters>
  <separator name="general" >
   <i type="string" name="SYSTEM">benzene</i>
   <i type="logical" name="LCOMPAT"> F  </i>
  </separator>
  <separator name="electronic" >
   <i type="string" name="PREC">accura</i>
   <i name="ENMAX">    600.00000000</i>
   <i name="ENAUG">    644.87300000</i>
   <i name="EDIFF">      0.00000100</i>
   <i type="int" name="IALGO">    38</i>
   <i type="int" name="IWAVPR">    10</i>
   <i type="int" name="NBANDS">    24</i>
   <i type="int" name="NBANDSLOW">    -1</i>
   <i type="int" name="NBANDSHIGH">    -1</i>
   <i name="NELECT">     30.00000000</i>
   <i type="int" name="TURBO">     0</i>
   <i type="int" name="IRESTART">     0</i>
   <i type="int" name="NREBOOT">     0</i>
   <i type="int" name="NMIN">     0</i>
   <i name="EREF">      0.00000000</i>
   <separator name="electronic smearing" >
    <i type="int" name="ISMEAR">     0</i>
    <i name="SIGMA">      0.05000000</i>
    <i name="KSPACING">      0.50000000</i>
    <i type="logical" name="KGAMMA"> T  </i>
    <i type="logical" name="KBLOWUP"> T  </i>
   </separator>
   <separator name="electronic projectors" >
    <i type="logical" name="LREAL"> F  </i>
    <v name="ROPT">      0.00000000      0.00000000</v>
    <i type="int" name="LMAXPAW">  -100</i>
    <i type="int" name="LMAXMIX">     2</i>
    <i type="logical" name="NLSPLINE"> F  </i>
   </separator>
   <separator name="electronic startup" >
    <i type="int" name="ISTART">     0</i>
    <i type="int" name="ICHARG">     2</i>
    <i type="int" name="INIWAV">     1</i>
   </separator>
   <separator name="electronic spin" >
    <i type="int" name="ISPIN">     1</i>
    <i type="logical" name="LNONCOLLINEAR"> F  </i>
    <v name="MAGMOM">      1.00000000      1.00000000      1.00000000      1.00000000      1.00000000      1.00000000      1.00000000      1.00000000      1.00000000      1.00000000      1.00000000      1.00000000</v>
    <i name="NUPDOWN">     -1.00000000</i>
    <i type="logical" name="LSORBIT"> F  </i>
    <v name="SAXIS">      0.00000000      0.00000000      1.00000000</v>
    <i type="logical" name="LSPIRAL"> F  </i>
    <v name="QSPIRAL">      0.00000000      0.00000000      0.00000000</v>
    <i type="logical" name="LZEROZ"> F  </i>
   </separator>
   <separator name="electronic exchange-correlation" >
    <i type="logical" name="LASPH"> F  </i>
    <i type="logical" name="LMETAGGA"> F  </i>
   </separator>
   <separator name="electronic convergence" >
    <i type="int" name="NELM">   200</i>
    <i type="int" name="NELMDL">    -5</i>
    <i type="int" name="NELMIN">     2</i>
    <i name="ENINI">    600.00000000</i>
    <separator name="electronic convergence detail" >
     <i type="logical" name="LDIAG"> T  </i>
     <i type="logical" name="LSUBROT"> F  </i>
     <i name="WEIMIN">      0.00000000</i>
     <i name="EBREAK">      0.00000001</i>
     <i name="DEPER">      0.30000000</i>
     <i type="int" name="NRMM">     4</i>
     <i name="TIME">      0.40000000</i>
    </separator>
   </separator>
   <separator name="electronic mixer" >
    <i name="AMIX">      0.40000000</i>
    <i name="BMIX">      1.00000000</i>
    <i name="AMIN">      0.10000000</i>
    <i name="AMIX_MAG">      1.60000000</i>
    <i name="BMIX_MAG">      1.00000000</i>
    <separator name="electronic mixer details" >
     <i type="int" name="IMIX">     4</i>
     <i type="logical" name="MIXFIRST"> F  </i>
     <i type="int" name="MAXMIX">   -45</i>
     <i name="WC">    100.00000000</i>
     <i type="int" name="INIMIX">     1</i>
     <i type="int" name="MIXPRE">     1</i>
     <i type="int" name="MREMOVE">     5</i>
    </separator>
   </separator>
   <separator name="electronic dipolcorrection" >
    <i type="logical" name="LDIPOL"> F  </i>
    <i type="logical" name="LMONO"> F  </i>
    <i type="int" name="IDIPOL">     0</i>
    <i name="EPSILON">      1.00000000</i>
    <v name="DIPOL">   -100.00000000   -100.00000000   -100.00000000</v>
    <i name="EFIELD">      0.00000000</i>
   </separator>
  </separator>
  <separator name="grids" >
   <i type="int" name="NGX">    90</i>
   <i type="int" name="NGY">    90</i>
   <i type="int" name="NGZ">    90</i>
   <i type="int" name="NGXF">   180</i>
   <i type="int" name="NGYF">   180</i>
   <i type="int" name="NGZF">   180</i>
   <i type="logical" name="ADDGRID"> F  </i>
  </separator>
  <separator name="ionic" >
   <i type="int" name="NSW">     0</i>
   <i type="int" name="IBRION">    -1</i>
   <i type="int" name="MDALGO">     0</i>
   <i type="int" name="ISIF">     2</i>
   <i name="PSTRESS">      0.00000000</i>
   <i name="EDIFFG">      0.00001000</i>
   <i type="int" name="NFREE">     0</i>
   <i name="POTIM">      0.50000000</i>
   <i name="SMASS">     -3.00000000</i>
   <i name="SCALEE">      1.00000000</i>
  </separator>
  <separator name="ionic md" >
   <i name="TEBEG">      0.00010000</i>
   <i name="TEEND">      0.00010000</i>
   <i type="int" name="NBLOCK">     1</i>
   <i type="int" name="KBLOCK">     1</i>
   <i type="int" name="NPACO">   256</i>
   <i name="APACO">     16.00000000</i>
  </separator>
  <separator name="symmetry" >
   <i type="int" name="ISYM">     2</i>
   <i name="SYMPREC">      0.00001000</i>
  </separator>
  <separator name="dos" >
   <i type="int" name="LORBIT">     0</i>
   <v name="RWIGS">     -1.00000000     -1.00000000</v>
   <i type="int" name="NEDOS">   301</i>
   <i name="EMIN">     10.00000000</i>
   <i name="EMAX">    -10.00000000</i>
   <i name="EFERMI">      0.00000000</i>
  </separator>
  <separator name="writing" >
   <i type="int" name="NWRITE">     2</i>
   <i type="logical" name="LWAVE"> F  </i>
   <i type="logical" name="LDOWNSAMPLE"> F  </i>
   <i type="logical" name="LCHARG"> T  </i>
   <i type="logical" name="LPARD"> F  </i>
   <i type="logical" name="LVTOT"> F  </i>
   <i type="logical" name="LVHAR"> F  </i>
   <i type="logical" name="LELF"> F  </i>
   <i type="logical" name="LOPTICS"> F  </i>
   <v name="STM">      0.00000000      0.00000000      0.00000000      0.00000000      0.00000000      0.00000000      0.00000000</v>
  </separator>
  <separator name="performance" >
   <i type="int" name="NPAR">     4</i>
   <i type="int" name="NSIM">     4</i>
   <i type="int" name="NBLK">    -1</i>
   <i type="logical" name="LPLANE"> T  </i>
   <i type="logical" name="LSCALAPACK"> T  </i>
   <i type="logical" name="LSCAAWARE"> F  </i>
   <i type="logical" name="LSCALU"> F  </i>
   <i type="logical" name="LASYNC"> F  </i>
   <i type="logical" name="LORBITALREAL"> F  </i>
  </separator>
  <separator name="miscellaneous" >
   <i type="int" name="IDIOT">     3</i>
   <i type="int" name="PHON_NSTRUCT">    -1</i>
   <i type="logical" name="LMUSIC"> F  </i>
   <v name="POMASS">     12.01100000      1.00000000</v>
   <v name="DARWINR">      0.00000000      0.00000000</v>
   <v name="DARWINV">      1.00000000      1.00000000</v>
   <i type="logical" name="LCORR"> T  </i>
  </separator>
  <i type="logical" name="GGA_COMPAT"> T  </i>
  <i type="logical" name="LBERRY"> F  </i>
  <i type="int" name="ICORELEVEL">     0</i>
  <i type="logical" name="LDAU"> F  </i>
  <i type="int" name="I_CONSTRAINED_M">     0</i>
  <separator name="electronic exchange-correlation" >
   <i type="string" name="GGA">PE</i>
   <i type="int" name="VOSKOWN">     0</i>
   <i type="logical" name="LHFCALC"> F  </i>
   <i type="string" name="PRECFOCK"></i>
   <i type="logical" name="LSYMGRAD"> F  </i>
   <i type="logical" name="LHFONE"> F  </i>
   <i type="logical" name="LRHFCALC"> F  </i>
   <i type="logical" name="LTHOMAS"> F  </i>
   <i type="logical" name="LMODELHF"> F  </i>
   <i type="logical" name="LFOCKACE"> F  </i>
   <i name="ENCUT4O">     -1.00000000</i>
   <i type="int" name="EXXOEP">     0</i>
   <i type="int" name="FOURORBIT">     0</i>
   <i name="AEXX">      0.00000000</i>
   <i name="HFALPHA">      0.00000000</i>
   <i name="MCALPHA">      0.00000000</i>
   <i name="ALDAX">      1.00000000</i>
   <i name="AGGAX">      1.00000000</i>
   <i name="ALDAC">      1.00000000</i>
   <i name="AGGAC">      1.00000000</i>
   <i type="int" name="NKREDX">     1</i>
   <i type="int" name="NKREDY">     1</i>
   <i type="int" name="NKREDZ">     1</i>
   <i type="logical" name="SHIFTRED"> F  </i>
   <i type="logical" name="ODDONLY"> F  </i>
   <i type="logical" name="EVENONLY"> F  </i>
   <i type="int" name="LMAXFOCK">     0</i>
   <i type="int" name="NMAXFOCKAE">     0</i>
   <i type="logical" name="LFOCKAEDFT"> F  </i>
   <i name="HFSCREEN">      0.00000000</i>
   <i name="HFSCREENC">      0.00000000</i>
   <i type="int" name="NBANDSGWLOW">     0</i>
  </separator>
  <separator name="vdW DFT" >
   <i type="logical" name="LUSE_VDW"> F  </i>
   <i name="Zab_VDW">     -0.84910000</i>
   <i name="PARAM1">      0.12340000</i>
   <i name="PARAM2">      1.00000000</i>
   <i name="PARAM3">      0.00000000</i>
  </separator>
  <separator name="model GW" >
   <i type="int" name="MODEL_GW">     0</i>
   <i name="MODEL_EPS0">     59.27388459</i>
   <i name="MODEL_ALPHA">      1.00000000</i>
  </separator>
  <separator name="linear response parameters" >
   <i type="logical" name="LEPSILON"> F  </i>
   <i type="logical" name="LRPA"> F  </i>
   <i type="logical" name="LNABLA"> F  </i>
   <i type="logical" name="LVEL"> F  </i>
   <i type="int" name="KINTER">     0</i>
   <i name="CSHIFT">      0.10000000</i>
   <i name="OMEGAMAX">     -1.00000000</i>
   <i name="DEG_THRESHOLD">      0.00200000</i>
   <i name="RTIME">     -0.10000000</i>
   <i name="WPLASMAI">      0.00000000</i>
   <v name="DFIELD">      0.00000000      0.00000000      0.00000000</v>
   <v name="WPLASMA">      0.00000000      0.00000000      0.00000000      0.00000000      0.00000000      0.00000000      0.00000000      0.00000000      0.00000000</v>
  </separator>
  <separator name="orbital magnetization" >
   <i type="logical" name="NUCIND"> F  </i>
   <v name="MAGPOS">      0.00000000      0.00000000      0.00000000</v>
   <i type="logical" name="LNICSALL"> T  </i>
   <i type="logical" name="ORBITALMAG"> F  </i>
   <i type="logical" name="LMAGBLOCH"> F  </i>
   <i type="logical" name="LCHIMAG"> F  </i>
   <i type="logical" name="LGAUGE"> T  </i>
   <i type="int" name="MAGATOM">     0</i>
   <v name="MAGDIPOL">      0.00000000      0.00000000      0.00000000</v>
   <v name="AVECCONST">      0.00000000      0.00000000      0.00000000</v>
  </separator>
  <separator name="response functions" >
   <i type="logical" name="LFINITE_TEMPERATURE"> F  </i>
   <i type="logical" name="LADDER"> F  </i>
   <i type="logical" name="LRPAFORCE"> F  </i>
   <i type="logical" name="LFXC"> F  </i>
   <i type="logical" name="LHARTREE"> T  </i>
   <i type="int" name="IBSE">     0</i>
   <v type="int" name="KPOINT">    -1     0     0     0</v>
   <i type="logical" name="LTCTC"> F  </i>
   <i type="logical" name="LTCTE"> F  </i>
   <i type="logical" name="LTETE"> F  </i>
   <i type="logical" name="LTRIPLET"> F  </i>
   <i type="logical" name="LFXCEPS"> F  </i>
   <i type="logical" name="LFXHEG"> F  </i>
   <i type="int" name="NATURALO">     2</i>
   <i type="logical" name="LHOLEGF"> F  </i>
   <i type="logical" name="L2ORDER"> F  </i>
   <i type="logical" name="LDMP1"> F  </i>
   <i type="logical" name="LMP2LT"> F  </i>
   <i type="logical" name="LSMP2LT"> F  </i>
   <i type="logical" name="LGWLF"> F  </i>
   <i name="ENCUTGW">     -2.00000000</i>
   <i name="ENCUTGWSOFT">     -2.00000000</i>
   <i name="ENCUTLF">     -1.00000000</i>
   <i type="logical" name="LESF_SPLINES"> F  </i>
   <i type="int" name="LMAXMP2">    -1</i>
   <i name="SCISSOR">      0.00000000</i>
   <i type="int" name="NOMEGA">     0</i>
   <i type="int" name="NOMEGAR">     0</i>
   <i type="int" name="NBANDSGW">    -1</i>
   <i type="int" name="NBANDSO">    -1</i>
   <i type="int" name="NBANDSV">    -1</i>
   <i type="int" name="NELM">   200</i>
   <i type="int" name="NELMHF">     1</i>
   <i type="int" name="DIM">     3</i>
   <i type="int" name="IESPILON">     4</i>
   <i type="int" name="ANTIRES">     0</i>
   <i name="OMEGAMAX">    -30.00000000</i>
   <i name="OMEGAMIN">    -30.00000000</i>
   <i name="OMEGATL">   -200.00000000</i>
   <i type="int" name="OMEGAGRID">     0</i>
   <i name="CSHIFT">     -0.10000000</i>
   <i type="logical" name="LSELFENERGY"> F  </i>
   <i type="logical" name="LSPECTRAL"> F  </i>
   <i type="logical" name="LSPECTRALGW"> F  </i>
   <i type="logical" name="LSINGLES"> F  </i>
   <i type="logical" name="LFERMIGW"> F  </i>
   <i type="logical" name="ODDONLYGW"> F  </i>
   <i type="logical" name="EVENONLYGW"> F  </i>
   <i type="int" name="NKREDLFX">     1</i>
   <i type="int" name="NKREDLFY">     1</i>
   <i type="int" name="NKREDLFZ">     1</i>
   <i type="int" name="MAXMEM">  2800</i>
   <i type="int" name="TELESCOPE">     0</i>
   <i type="int" name="NTAUPAR">    -1</i>
   <i type="int" name="NOMEGAPAR">    -1</i>
   <i name="DAMP_NEWTON">      0.80000001</i>
   <i name="LAMBDA">      1.00000000</i>
  </separator>
  <separator name="External order field" >
   <i name="OFIELD_KAPPA">      0.00000000</i>
   <v name="OFIELD_K">      0.00000000      0.00000000      0.00000000</v>
   <i name="OFIELD_Q6_NEAR">      0.00000000</i>
   <i name="OFIELD_Q6_FAR">      0.00000000</i>
   <i name="OFIELD_A">      0.00000000</i>
  </separator>
 </parameters>
 <atominfo>
  <atoms>      12 </atoms>
  <types>       2 </types>
  <array name="atoms" >
   <dimension dim="1">ion</dimension>
   <field type="string">element</field>
   <field type="int">atomtype</field>
   <set>
    <rc><c>C </c><c>   1</c></rc>
    <rc><c>C </c><c>   1</c></rc>
    <rc><c>C </c><c>   1</c></rc>
    <rc><c>C </c><c>   1</c></rc>
    <rc><c>C </c><c>   1</c></rc>
    <rc><c>C </c><c>   1</c></rc>
    <rc><c>H </c><c>   2</c></rc>
    <rc><c>H </c><c>   2</c></rc>
    <rc><c>H </c><c>   2</c></rc>
    <rc><c>H </c><c>   2</c></rc>
    <rc><c>H </c><c>   2</c></rc>
    <rc><c>H </c><c>   2</c></rc>
   </set>
  </array>
  <array name="atomtypes" >
   <dimension dim="1">type</dimension>
   <field type="int">atomspertype</field>
   <field type="string">element</field>
   <field>mass</field>
   <field>valence</field>
   <field type="string">pseudopotential</field>
   <set>
    <rc><c>   6</c><c>C </c><c>     12.01100000</c><c>      4.00000000</c><c>  PAW_PBE C 08Apr2002                   </c></rc>
    <rc><c>   6</c><c>H </c><c>      1.00000000</c><c>      1.00000000</c><c>  PAW_PBE H 15Jun2001                   </c></rc>
   </set>
  </array>
 </atominfo>
 <structure name="initialpos" >
  <crystal>
   <varray name="basis" >
    <v>      10.58354422       0.00000000       0.00000000 </v>
    <v>       0.00000000      10.58354422       0.00000000 </v>
    <v>       0.00000000       0.00000000      10.58354422 </v>
   </varray>
   <i name="volume">   1185.47769178 </i>
   <varray name="rec_basis" >
    <v>       0.09448631       0.00000000       0.00000000 </v>
    <v>       0.00000000       0.09448631       0.00000000 </v>
    <v>       0.00000000       0.00000000       0.09448631 </v>
   </varray>
  </crystal>
  <varray name="positions" >
   <v>       0.50093805       0.63114980       0.50150345 </v>
   <v>       0.38876410       0.56619605       0.49741795 </v>
   <v>       0.38606955       0.43372960       0.50483675 </v>
   <v>       0.50244265       0.36768535       0.49890370 </v>
   <v>       0.61936220       0.43518890       0.49743680 </v>
   <v>       0.61989095       0.56773280       0.50237045 </v>
   <v>       0.49615600       0.73429115       0.49813265 </v>
   <v>       0.29182070       0.60957330       0.49820485 </v>
   <v>       0.29774860       0.38972930       0.49896605 </v>
   <v>       0.48859180       0.26399790       0.50374515 </v>
   <v>       0.70614465       0.38416075       0.49398565 </v>
   <v>       0.70207075       0.61656500       0.50449660 </v>
  </varray>
 </structure>
 <calculation>
  <scstep>
   <time name="dav">    0.21    0.21</time>
   <time name="total">    0.48    0.48</time>
   <energy>
    <i name="alphaZ">      3.48814018 </i>
    <i name="ewald">   1122.09484216 </i>
    <i name="hartreedc">  -1756.72481452 </i>
    <i name="XCdc">     91.24924597 </i>
    <i name="pawpsdc">    663.93644290 </i>
    <i name="pawaedc">   -667.40614445 </i>
    <i name="eentropy">     -0.00000000 </i>
    <i name="bandstr">   -198.27721970 </i>
    <i name="atom">    957.82965714 </i>
    <i name="e_fr_energy">    216.19014965 </i>
    <i name="e_wo_entrp">    216.19014965 </i>
    <i name="e_0_energy">    216.19014965 </i>
   </energy>
  </scstep>
  <scstep>
   <time name="dav">    0.25    0.25</time>
   <time name="total">    0.25    0.25</time>
   <energy>
    <i name="e_fr_energy">     -2.86909736 </i>
    <i name="e_wo_entrp">     -2.86909736 </i>
    <i name="e_0_energy">     -2.86909736 </i>
   </energy>
  </scstep>
  <scstep>
   <time name="dav">    0.21    0.21</time>
   <time name="total">    0.21    0.21</time>
   <energy>
    <i name="e_fr_energy">    -77.91842912 </i>
    <i name="e_wo_entrp">    -77.91842912 </i>
    <i name="e_0_energy">    -77.91842912 </i>
   </energy>
  </scstep>
  <scstep>
   <time name="dav">    0.19    0.19</time>
   <time name="total">    0.19    0.19</time>
   <energy>
    <i name="e_fr_energy">    -83.69357578 </i>
    <i name="e_wo_entrp">    -83.69357578 </i>
    <i name="e_0_energy">    -83.69357578 </i>
   </energy>
  </scstep>
  <scstep>
   <time name="dav">    0.23    0.23</time>
   <time name="total">    0.27    0.27</time>
   <energy>
    <i name="e_fr_energy">    -83.80996819 </i>
    <i name="e_wo_entrp">    -83.80996819 </i>
    <i name="e_0_energy">    -83.80996819 </i>
   </energy>
  </scstep>
  <scstep>
   <time name="dav">    0.25    0.25</time>
   <time name="total">    0.54    0.55</time>
   <energy>
    <i name="e_fr_energy">    -77.62492891 </i>
    <i name="e_wo_entrp">    -77.62492891 </i>
    <i name="e_0_energy">    -77.62492891 </i>
   </energy>
  </scstep>
  <scstep>
   <time name="dav">    0.25    0.25</time>
   <time name="total">    0.55    0.56</time>
   <energy>
    <i name="e_fr_energy">    -75.79142812 </i>
    <i name="e_wo_entrp">    -75.79142812 </i>
    <i name="e_0_energy">    -75.79142812 </i>
   </energy>
  </scstep>
  <scstep>
   <time name="dav">    0.25    0.25</time>
   <time name="total">    0.55    0.55</time>
   <energy>
    <i name="e_fr_energy">    -75.63694157 </i>
    <i name="e_wo_entrp">    -75.63694157 </i>
    <i name="e_0_energy">    -75.63694157 </i>
   </energy>
  </scstep>
  <scstep>
   <time name="dav">    0.21    0.21</time>
   <time name="total">    0.51    0.51</time>
   <energy>
    <i name="e_fr_energy">    -75.59397188 </i>
    <i name="e_wo_entrp">    -75.59397188 </i>
    <i name="e_0_energy">    -75.59397188 </i>
   </energy>
  </scstep>
  <scstep>
   <time name="dav">    0.25    0.25</time>
   <time name="total">    0.55    0.55</time>
   <energy>
    <i name="e_fr_energy">    -75.58844212 </i>
    <i name="e_wo_entrp">    -75.58844212 </i>
    <i name="e_0_energy">    -75.58844212 </i>
   </energy>
  </scstep>
  <scstep>
   <time name="dav">    0.20    0.20</time>
   <time name="total">    0.49    0.49</time>
   <energy>
    <i name="e_fr_energy">    -75.57877537 </i>
    <i name="e_wo_entrp">    -75.57877537 </i>
    <i name="e_0_energy">    -75.57877537 </i>
   </energy>
  </scstep>
  <scstep>
   <time name="dav">    0.21    0.21</time>
   <time name="total">    0.49    0.50</time>
   <energy>
    <i name="e_fr_energy">    -75.58391997 </i>
    <i name="e_wo_entrp">    -75.58391997 </i>
    <i name="e_0_energy">    -75.58391997 </i>
   </energy>
  </scstep>
  <scstep>
   <time name="dav">    0.21    0.21</time>
   <time name="total">    0.49    0.50</time>
   <energy>
    <i name="e_fr_energy">    -75.59498846 </i>
    <i name="e_wo_entrp">    -75.59498846 </i>
    <i name="e_0_energy">    -75.59498846 </i>
   </energy>
  </scstep>
  <scstep>
   <time name="dav">    0.21    0.21</time>
   <time name="total">    0.49    0.49</time>
   <energy>
    <i name="e_fr_energy">    -75.60117965 </i>
    <i name="e_wo_entrp">    -75.60117965 </i>
    <i name="e_0_energy">    -75.60117965 </i>
   </energy>
  </scstep>
  <scstep>
   <time name="dav">    0.21    0.21</time>
   <time name="total">    0.48    0.49</time>
   <energy>
    <i name="e_fr_energy">    -75.60437883 </i>
    <i name="e_wo_entrp">    -75.60437883 </i>
    <i name="e_0_energy">    -75.60437883 </i>
   </energy>
  </scstep>
  <scstep>
   <time name="dav">    0.21    0.21</time>
   <time name="total">    0.48    0.49</time>
   <energy>
    <i name="e_fr_energy">    -75.60547838 </i>
    <i name="e_wo_entrp">    -75.60547838 </i>
    <i name="e_0_energy">    -75.60547838 </i>
   </energy>
  </scstep>
  <scstep>
   <time name="dav">    0.21    0.21</time>
   <time name="total">    0.49    0.49</time>
   <energy>
    <i name="e_fr_energy">    -75.60589533 </i>
    <i name="e_wo_entrp">    -75.60589533 </i>
    <i name="e_0_energy">    -75.60589533 </i>
   </energy>
  </scstep>
  <scstep>
   <time name="dav">    0.23    0.23</time>
   <time name="total">    0.52    0.53</time>
   <energy>
    <i name="e_fr_energy">    -75.60601211 </i>
    <i name="e_wo_entrp">    -75.60601211 </i>
    <i name="e_0_energy">    -75.60601211 </i>
   </energy>
  </scstep>
  <scstep>
   <time name="dav">    0.19    0.19</time>
   <time name="total">    0.48    0.48</time>
   <energy>
    <i name="e_fr_energy">    -75.60604774 </i>
    <i name="e_wo_entrp">    -75.60604774 </i>
    <i name="e_0_energy">    -75.60604774 </i>
   </energy>
  </scstep>
  <scstep>
   <time name="dav">    0.19    0.19</time>
   <time name="total">    0.48    0.48</time>
   <energy>
    <i name="e_fr_energy">    -75.60605874 </i>
    <i name="e_wo_entrp">    -75.60605874 </i>
    <i name="e_0_energy">    -75.60605874 </i>
   </energy>
  </scstep>
  <scstep>
   <time name="dav">    0.19    0.19</time>
   <time name="total">    0.48    0.49</time>
   <energy>
    <i name="e_fr_energy">    -75.60606376 </i>
    <i name="e_wo_entrp">    -75.60606376 </i>
    <i name="e_0_energy">    -75.60606376 </i>
   </energy>
  </scstep>
  <scstep>
   <time name="dav">    0.17    0.17</time>
   <time name="total">    0.42    0.43</time>
   <energy>
    <i name="alphaZ">      3.48814018 </i>
    <i name="ewald">   1122.09484216 </i>
    <i name="hartreedc">  -1903.42327899 </i>
    <i name="XCdc">     98.19470858 </i>
    <i name="pawpsdc">   2483.53097265 </i>
    <i name="pawaedc">  -2487.78987963 </i>
    <i name="eentropy">     -0.00000000 </i>
    <i name="bandstr">   -349.53122664 </i>
    <i name="atom">    957.82965714 </i>
    <i name="e_fr_energy">    -75.60606456 </i>
    <i name="e_wo_entrp">    -75.60606456 </i>
    <i name="e_0_energy">    -75.60606456 </i>
   </energy>
  </scstep>
  <structure>
   <crystal>
    <varray name="basis" >
     <v>      10.58354422       0.00000000       0.00000000 </v>
     <v>       0.00000000      10.58354422       0.00000000 </v>
     <v>       0.00000000       0.00000000      10.58354422 </v>
    </varray>
    <i name="volume">   1185.47769178 </i>
    <varray name="rec_basis" >
     <v>       0.09448631       0.00000000       0.00000000 </v>
     <v>       0.00000000       0.09448631       0.00000000 </v>
     <v>       0.00000000       0.00000000       0.09448631 </v>
    </varray>
   </crystal>
   <varray name="positions" >
    <v>       0.50093805       0.63114980       0.50150345 </v>
    <v>       0.38876410       0.56619605       0.49741795 </v>
    <v>       0.38606955       0.43372960       0.50483675 </v>
    <v>       0.50244265       0.36768535       0.49890370 </v>
    <v>       0.61936220       0.43518890       0.49743680 </v>
    <v>       0.61989095       0.56773280       0.50237045 </v>
    <v>       0.49615600       0.73429115       0.49813265 </v>
    <v>       0.29182070       0.60957330       0.49820485 </v>
    <v>       0.29774860       0.38972930       0.49896605 </v>
    <v>       0.48859180       0.26399790       0.50374515 </v>
    <v>       0.70614465       0.38416075       0.49398565 </v>
    <v>       0.70207075       0.61656500       0.50449660 </v>
   </varray>
  </structure>
  <varray name="forces" >
   <v>       1.15737305       0.63046606      -0.23149818 </v>
   <v>      -1.84766237      -0.73864713       0.59154460 </v>
   <v>       2.68267695       1.05748237      -0.77607082 </v>
   <v>      -0.81723677       0.24143578       0.47005245 </v>
   <v>      -1.61393926      -0.06857284       0.18656708 </v>
   <v>      -4.00717941      -1.87498450      -0.22049416 </v>
   <v>       0.24540499      -0.00403769       0.09960757 </v>
   <v>       1.12265500       0.20512377      -0.11483874 </v>
   <v>      -1.32346308      -1.07390603       0.14488778 </v>
   <v>       0.87126339       0.39209951      -0.19516980 </v>
   <v>       0.76617792      -0.45654957       0.00499635 </v>
   <v>       2.76392957       1.69009028       0.04041586 </v>
  </varray>
  <varray name="stress" >
   <v>      -0.76624477       2.10250567       0.35756221 </v>
   <v>       2.10250567       1.23387052       0.22864904 </v>
   <v>       0.35756220       0.22864903      -0.28749164 </v>
  </varray>
  <energy>
   <i name="e_fr_energy">    -75.60606456 </i>
   <i name="e_wo_entrp">    -75.60606456 </i>
   <i name="e_0_energy">    -75.60606456 </i>
  </energy>
  <time name="totalsc">   15.23   15.43</time>
  <eigenvalues>
   <array>
    <dimension dim="1">band</dimension>
    <dimension dim="2">kpoint</dimension>
    <dimension dim="3">spin</dimension>
    <field>eigene</field>
    <field>occ</field>
    <set>
     <set comment="spin 1">
      <set comment="kpoint 1">
       <r>  -20.6577    1.0000 </r>
       <r>  -18.0884    1.0000 </r>
       <r>  -17.8643    1.0000 </r>
       <r>  -14.5495    1.0000 </r>
       <r>  -14.3458    1.0000 </r>
       <r>  -12.4249    1.0000 </r>
       <r>  -10.9711    1.0000 </r>
       <r>  -10.4367    1.0000 </r>
       <r>   -9.8864    1.0000 </r>
       <r>   -9.5972    1.0000 </r>
       <r>   -8.5597    1.0000 </r>
       <r>   -8.1071    1.0000 </r>
       <r>   -7.4930    1.0000 </r>
       <r>   -5.9479    1.0000 </r>
       <r>   -5.8360    1.0000 </r>
       <r>   -0.9849    0.0000 </r>
       <r>   -0.8357    0.0000 </r>
       <r>   -0.4207    0.0000 </r>
       <r>    0.6958    0.0000 </r>
       <r>    0.8459    0.0000 </r>
       <r>    0.8700    0.0000 </r>
       <r>    0.9340    0.0000 </r>
       <r>    0.9929    0.0000 </r>
       <r>    1.4514    0.0000 </r>
      </set>
     </set>
    </set>
   </array>
  </eigenvalues>
  <separator name="orbital magnetization" >
   <v name="MAGDIPOLOUT">      0.00000000      0.00000000      0.00000000</v>
  </separator>
  <dos>
   <i name="efermi">     -5.54477696 </i>
   <total>
    <array>
     <dimension dim="1">gridpoints</dimension>
     <dimension dim="2">spin</dimension>
     <field>energy</field>
     <field>total</field>
     <field>integrated</field>
     <set>
      <set comment="spin 1">
       <r>   -21.7632     0.0000     0.0000 </r>
       <r>   -21.6821     0.0000     0.0000 </r>
       <r>   -21.6010     0.0000     0.0000 </r>
       <r>   -21.5200     0.0000     0.0000 </r>
       <r>   -21.4389     0.0000     0.0000 </r>
       <r>   -21.3578     0.0000     0.0000 </r>
       <r>   -21.2768     0.0000     0.0000 </r>
       <r>   -21.1957     0.0000     0.0000 </r>
       <r>   -21.1146     0.0000     0.0000 </r>
       <r>   -21.0336     0.0000     0.0000 </r>
       <r>   -20.9525     0.0000     0.0000 </r>
       <r>   -20.8714     0.0000     0.0000 </r>
       <r>   -20.7904     0.0022     0.0002 </r>
       <r>   -20.7093     1.7807     0.1445 </r>
       <r>   -20.6282    17.8997     1.5956 </r>
       <r>   -20.5472     4.9667     1.9982 </r>
       <r>   -20.4661     0.0218     2.0000 </r>
       <r>   -20.3850     0.0000     2.0000 </r>
       <r>   -20.3040     0.0000     2.0000 </r>
       <r>   -20.2229     0.0000     2.0000 </r>
       <r>   -20.1418     0.0000     2.0000 </r>
       <r>   -20.0608     0.0000     2.0000 </r>
       <r>   -19.9797     0.0000     2.0000 </r>
       <r>   -19.8986     0.0000     2.0000 </r>
       <r>   -19.8176     0.0000     2.0000 </r>
       <r>   -19.7365     0.0000     2.0000 </r>
       <r>   -19.6554     0.0000     2.0000 </r>
       <r>   -19.5744     0.0000     2.0000 </r>
       <r>   -19.4933     0.0000     2.0000 </r>
       <r>   -19.4122     0.0000     2.0000 </r>
       <r>   -19.3312     0.0000     2.0000 </r>
       <r>   -19.2501     0.0000     2.0000 </r>
       <r>   -19.1690     0.0000     2.0000 </r>
       <r>   -19.0880     0.0000     2.0000 </r>
       <r>   -19.0069     0.0000     2.0000 </r>
       <r>   -18.9258     0.0000     2.0000 </r>
       <r>   -18.8448     0.0000     2.0000 </r>
       <r>   -18.7637     0.0000     2.0000 </r>
       <r>   -18.6826     0.0000     2.0000 </r>
       <r>   -18.6016     0.0000     2.0000 </r>
       <r>   -18.5205     0.0000     2.0000 </r>
       <r>   -18.4394     0.0000     2.0000 </r>
       <r>   -18.3584     0.0000     2.0000 </r>
       <r>   -18.2773     0.0000     2.0000 </r>
       <r>   -18.1962     0.0282     2.0023 </r>
       <r>   -18.1152     5.5055     2.4486 </r>
       <r>   -18.0341    17.5986     3.8753 </r>
       <r>   -17.9530     1.6865     4.0120 </r>
       <r>   -17.8720    10.0768     4.8289 </r>
       <r>   -17.7909    13.9800     5.9622 </r>
       <r>   -17.7098     0.4664     6.0000 </r>
       <r>   -17.6288     0.0002     6.0000 </r>
       <r>   -17.5477     0.0000     6.0000 </r>
       <r>   -17.4666     0.0000     6.0000 </r>
       <r>   -17.3856     0.0000     6.0000 </r>
       <r>   -17.3045     0.0000     6.0000 </r>
       <r>   -17.2234     0.0000     6.0000 </r>
       <r>   -17.1424     0.0000     6.0000 </r>
       <r>   -17.0613     0.0000     6.0000 </r>
       <r>   -16.9802     0.0000     6.0000 </r>
       <r>   -16.8992     0.0000     6.0000 </r>
       <r>   -16.8181     0.0000     6.0000 </r>
       <r>   -16.7370     0.0000     6.0000 </r>
       <r>   -16.6560     0.0000     6.0000 </r>
       <r>   -16.5749     0.0000     6.0000 </r>
       <r>   -16.4938     0.0000     6.0000 </r>
       <r>   -16.4128     0.0000     6.0000 </r>
       <r>   -16.3317     0.0000     6.0000 </r>
       <r>   -16.2506     0.0000     6.0000 </r>
       <r>   -16.1696     0.0000     6.0000 </r>
       <r>   -16.0885     0.0000     6.0000 </r>
       <r>   -16.0074     0.0000     6.0000 </r>
       <r>   -15.9264     0.0000     6.0000 </r>
       <r>   -15.8453     0.0000     6.0000 </r>
       <r>   -15.7642     0.0000     6.0000 </r>
       <r>   -15.6832     0.0000     6.0000 </r>
       <r>   -15.6021     0.0000     6.0000 </r>
       <r>   -15.5210     0.0000     6.0000 </r>
       <r>   -15.4400     0.0000     6.0000 </r>
       <r>   -15.3589     0.0000     6.0000 </r>
       <r>   -15.2778     0.0000     6.0000 </r>
       <r>   -15.1968     0.0000     6.0000 </r>
       <r>   -15.1157     0.0000     6.0000 </r>
       <r>   -15.0346     0.0000     6.0000 </r>
       <r>   -14.9536     0.0000     6.0000 </r>
       <r>   -14.8725     0.0000     6.0000 </r>
       <r>   -14.7914     0.0000     6.0000 </r>
       <r>   -14.7104     0.0001     6.0000 </r>
       <r>   -14.6293     0.2962     6.0240 </r>
       <r>   -14.5482    12.3937     7.0287 </r>
       <r>   -14.4672    11.7435     7.9807 </r>
       <r>   -14.3861     3.3811     8.2548 </r>
       <r>   -14.3050    18.4634     9.7516 </r>
       <r>   -14.2240     3.0573     9.9994 </r>
       <r>   -14.1429     0.0070    10.0000 </r>
       <r>   -14.0618     0.0000    10.0000 </r>
       <r>   -13.9808     0.0000    10.0000 </r>
       <r>   -13.8997     0.0000    10.0000 </r>
       <r>   -13.8186     0.0000    10.0000 </r>
       <r>   -13.7376     0.0000    10.0000 </r>
       <r>   -13.6565     0.0000    10.0000 </r>
       <r>   -13.5754     0.0000    10.0000 </r>
       <r>   -13.4944     0.0000    10.0000 </r>
       <r>   -13.4133     0.0000    10.0000 </r>
       <r>   -13.3322     0.0000    10.0000 </r>
       <r>   -13.2512     0.0000    10.0000 </r>
       <r>   -13.1701     0.0000    10.0000 </r>
       <r>   -13.0890     0.0000    10.0000 </r>
       <r>   -13.0080     0.0000    10.0000 </r>
       <r>   -12.9269     0.0000    10.0000 </r>
       <r>   -12.8458     0.0000    10.0000 </r>
       <r>   -12.7648     0.0000    10.0000 </r>
       <r>   -12.6837     0.0000    10.0000 </r>
       <r>   -12.6026     0.0000    10.0000 </r>
       <r>   -12.5216     0.0772    10.0063 </r>
       <r>   -12.4405     8.0544    10.6592 </r>
       <r>   -12.3594    15.7495    11.9360 </r>
       <r>   -12.2784     0.7896    12.0000 </r>
       <r>   -12.1973     0.0004    12.0000 </r>
       <r>   -12.1162     0.0000    12.0000 </r>
       <r>   -12.0352     0.0000    12.0000 </r>
       <r>   -11.9541     0.0000    12.0000 </r>
       <r>   -11.8730     0.0000    12.0000 </r>
       <r>   -11.7920     0.0000    12.0000 </r>
       <r>   -11.7109     0.0000    12.0000 </r>
       <r>   -11.6298     0.0000    12.0000 </r>
       <r>   -11.5488     0.0000    12.0000 </r>
       <r>   -11.4677     0.0000    12.0000 </r>
       <r>   -11.3866     0.0000    12.0000 </r>
       <r>   -11.3056     0.0000    12.0000 </r>
       <r>   -11.2245     0.0000    12.0000 </r>
       <r>   -11.1434     0.0000    12.0000 </r>
       <r>   -11.0624     0.1214    12.0098 </r>
       <r>   -10.9813     9.4149    12.7731 </r>
       <r>   -10.9002    14.5795    13.9550 </r>
       <r>   -10.8192     0.5550    14.0000 </r>
       <r>   -10.7381     0.0002    14.0000 </r>
       <r>   -10.6570     0.0000    14.0000 </r>
       <r>   -10.5760     0.0010    14.0001 </r>
       <r>   -10.4949     1.2255    14.0994 </r>
       <r>   -10.4138    17.0455    15.4812 </r>
       <r>   -10.3328     6.3584    15.9967 </r>
       <r>   -10.2517     0.0407    16.0000 </r>
       <r>   -10.1706     0.0000    16.0000 </r>
       <r>   -10.0896     0.0000    16.0000 </r>
       <r>   -10.0085     0.0068    16.0006 </r>
       <r>    -9.9274     3.0239    16.2457 </r>
       <r>    -9.8464    18.4624    17.7424 </r>
       <r>    -9.7653     3.1703    17.9994 </r>
       <r>    -9.6842     0.1786    18.0139 </r>
       <r>    -9.6032    10.5208    18.8668 </r>
       <r>    -9.5221    13.5651    19.9664 </r>
       <r>    -9.4410     0.4141    20.0000 </r>
       <r>    -9.3600     0.0001    20.0000 </r>
       <r>    -9.2789     0.0000    20.0000 </r>
       <r>    -9.1978     0.0000    20.0000 </r>
       <r>    -9.1168     0.0000    20.0000 </r>
       <r>    -9.0357     0.0000    20.0000 </r>
       <r>    -8.9546     0.0000    20.0000 </r>
       <r>    -8.8736     0.0000    20.0000 </r>
       <r>    -8.7925     0.0000    20.0000 </r>
       <r>    -8.7114     0.0002    20.0000 </r>
       <r>    -8.6304     0.5620    20.0456 </r>
       <r>    -8.5493    14.6223    21.2310 </r>
       <r>    -8.4682     9.3669    21.9903 </r>
       <r>    -8.3872     0.1196    22.0000 </r>
       <r>    -8.3061     0.0000    22.0000 </r>
       <r>    -8.2250     0.0105    22.0008 </r>
       <r>    -8.1440     3.6481    22.2966 </r>
       <r>    -8.0629    18.4021    23.7884 </r>
       <r>    -7.9818     2.6056    23.9996 </r>
       <r>    -7.9008     0.0049    24.0000 </r>
       <r>    -7.8197     0.0000    24.0000 </r>
       <r>    -7.7386     0.0000    24.0000 </r>
       <r>    -7.6576     0.0000    24.0000 </r>
       <r>    -7.5765     0.2237    24.0181 </r>
       <r>    -7.4954    11.4247    24.9443 </r>
       <r>    -7.4144    12.6993    25.9738 </r>
       <r>    -7.3333     0.3233    26.0000 </r>
       <r>    -7.2522     0.0001    26.0000 </r>
       <r>    -7.1712     0.0000    26.0000 </r>
       <r>    -7.0901     0.0000    26.0000 </r>
       <r>    -7.0090     0.0000    26.0000 </r>
       <r>    -6.9280     0.0000    26.0000 </r>
       <r>    -6.8469     0.0000    26.0000 </r>
       <r>    -6.7658     0.0000    26.0000 </r>
       <r>    -6.6848     0.0000    26.0000 </r>
       <r>    -6.6037     0.0000    26.0000 </r>
       <r>    -6.5226     0.0000    26.0000 </r>
       <r>    -6.4416     0.0000    26.0000 </r>
       <r>    -6.3605     0.0000    26.0000 </r>
       <r>    -6.2794     0.0000    26.0000 </r>
       <r>    -6.1984     0.0000    26.0000 </r>
       <r>    -6.1173     0.0000    26.0000 </r>
       <r>    -6.0362     0.1535    26.0124 </r>
       <r>    -5.9552    10.1747    26.8373 </r>
       <r>    -5.8741    17.3476    28.2436 </r>
       <r>    -5.7930    18.8926    29.7751 </r>
       <r>    -5.7120     2.7682    29.9995 </r>
       <r>    -5.6309     0.0056    30.0000 </r>
       <r>    -5.5498     0.0000    30.0000 </r>
       <r>    -5.4688     0.0000    30.0000 </r>
       <r>    -5.3877     0.0000    30.0000 </r>
       <r>    -5.3066     0.0000    30.0000 </r>
       <r>    -5.2256     0.0000    30.0000 </r>
       <r>    -5.1445     0.0000    30.0000 </r>
       <r>    -5.0634     0.0000    30.0000 </r>
       <r>    -4.9824     0.0000    30.0000 </r>
       <r>    -4.9013     0.0000    30.0000 </r>
       <r>    -4.8202     0.0000    30.0000 </r>
       <r>    -4.7392     0.0000    30.0000 </r>
       <r>    -4.6581     0.0000    30.0000 </r>
       <r>    -4.5770     0.0000    30.0000 </r>
       <r>    -4.4960     0.0000    30.0000 </r>
       <r>    -4.4149     0.0000    30.0000 </r>
       <r>    -4.3338     0.0000    30.0000 </r>
       <r>    -4.2528     0.0000    30.0000 </r>
       <r>    -4.1717     0.0000    30.0000 </r>
       <r>    -4.0906     0.0000    30.0000 </r>
       <r>    -4.0096     0.0000    30.0000 </r>
       <r>    -3.9285     0.0000    30.0000 </r>
       <r>    -3.8474     0.0000    30.0000 </r>
       <r>    -3.7664     0.0000    30.0000 </r>
       <r>    -3.6853     0.0000    30.0000 </r>
       <r>    -3.6042     0.0000    30.0000 </r>
       <r>    -3.5232     0.0000    30.0000 </r>
       <r>    -3.4421     0.0000    30.0000 </r>
       <r>    -3.3610     0.0000    30.0000 </r>
       <r>    -3.2800     0.0000    30.0000 </r>
       <r>    -3.1989     0.0000    30.0000 </r>
       <r>    -3.1178     0.0000    30.0000 </r>
       <r>    -3.0368     0.0000    30.0000 </r>
       <r>    -2.9557     0.0000    30.0000 </r>
       <r>    -2.8746     0.0000    30.0000 </r>
       <r>    -2.7936     0.0000    30.0000 </r>
       <r>    -2.7125     0.0000    30.0000 </r>
       <r>    -2.6314     0.0000    30.0000 </r>
       <r>    -2.5504     0.0000    30.0000 </r>
       <r>    -2.4693     0.0000    30.0000 </r>
       <r>    -2.3882     0.0000    30.0000 </r>
       <r>    -2.3072     0.0000    30.0000 </r>
       <r>    -2.2261     0.0000    30.0000 </r>
       <r>    -2.1450     0.0000    30.0000 </r>
       <r>    -2.0640     0.0000    30.0000 </r>
       <r>    -1.9829     0.0000    30.0000 </r>
       <r>    -1.9018     0.0000    30.0000 </r>
       <r>    -1.8208     0.0000    30.0000 </r>
       <r>    -1.7397     0.0000    30.0000 </r>
       <r>    -1.6586     0.0000    30.0000 </r>
       <r>    -1.5776     0.0000    30.0000 </r>
       <r>    -1.4965     0.0000    30.0000 </r>
       <r>    -1.4154     0.0000    30.0000 </r>
       <r>    -1.3344     0.0000    30.0000 </r>
       <r>    -1.2533     0.0000    30.0000 </r>
       <r>    -1.1722     0.0000    30.0000 </r>
       <r>    -1.0912     0.0328    30.0027 </r>
       <r>    -1.0101     5.8455    30.4765 </r>
       <r>    -0.9290    17.4904    31.8944 </r>
       <r>    -0.8480    10.2905    32.7286 </r>
       <r>    -0.7669    15.0459    33.9484 </r>
       <r>    -0.6858     0.6367    34.0000 </r>
       <r>    -0.6048     0.0003    34.0000 </r>
       <r>    -0.5237     0.0440    34.0036 </r>
       <r>    -0.4426     6.5465    34.5343 </r>
       <r>    -0.3616    16.9132    35.9054 </r>
       <r>    -0.2805     1.1666    35.9999 </r>
       <r>    -0.1995     0.0009    36.0000 </r>
       <r>    -0.1184     0.0000    36.0000 </r>
       <r>    -0.0373     0.0000    36.0000 </r>
       <r>     0.0437     0.0000    36.0000 </r>
       <r>     0.1248     0.0000    36.0000 </r>
       <r>     0.2059     0.0000    36.0000 </r>
       <r>     0.2869     0.0000    36.0000 </r>
       <r>     0.3680     0.0000    36.0000 </r>
       <r>     0.4491     0.0000    36.0000 </r>
       <r>     0.5301     0.0000    36.0000 </r>
       <r>     0.6112     0.2066    36.0167 </r>
       <r>     0.6923    11.1537    36.9209 </r>
       <r>     0.7733    13.5362    38.0183 </r>
       <r>     0.8544    22.8949    39.8743 </r>
       <r>     0.9355    39.3374    43.0632 </r>
       <r>     1.0165    29.7660    45.4763 </r>
       <r>     1.0976     6.4227    45.9969 </r>
       <r>     1.1787     0.0379    46.0000 </r>
       <r>     1.2597     0.0000    46.0000 </r>
       <r>     1.3408     0.0218    46.0018 </r>
       <r>     1.4219     4.9667    46.4044 </r>
       <r>     1.5029    17.8997    47.8555 </r>
       <r>     1.5840     1.7807    47.9998 </r>
       <r>     1.6651     0.0022    48.0000 </r>
       <r>     1.7461     0.0000    48.0000 </r>
       <r>     1.8272     0.0000    48.0000 </r>
       <r>     1.9083     0.0000    48.0000 </r>
       <r>     1.9893     0.0000    48.0000 </r>
       <r>     2.0704     0.0000    48.0000 </r>
       <r>     2.1515     0.0000    48.0000 </r>
       <r>     2.2325     0.0000    48.0000 </r>
       <r>     2.3136     0.0000    48.0000 </r>
       <r>     2.3947     0.0000    48.0000 </r>
       <r>     2.4757     0.0000    48.0000 </r>
       <r>     2.5568     0.0000    48.0000 </r>
      </set>
     </set>
    </array>
   </total>
  </dos>
 </calculation>
 <structure name="finalpos" >
  <crystal>
   <varray name="basis" >
    <v>      10.58354422       0.00000000       0.00000000 </v>
    <v>       0.00000000      10.58354422       0.00000000 </v>
    <v>       0.00000000       0.00000000      10.58354422 </v>
   </varray>
   <i name="volume">   1185.47769178 </i>
   <varray name="rec_basis" >
    <v>       0.09448631       0.00000000       0.00000000 </v>
    <v>       0.00000000       0.09448631       0.00000000 </v>
    <v>       0.00000000       0.00000000       0.09448631 </v>
   </varray>
  </crystal>
  <varray name="positions" >
   <v>       0.50093805       0.63114980       0.50150345 </v>
   <v>       0.38876410       0.56619605       0.49741795 </v>
   <v>       0.38606955       0.43372960       0.50483675 </v>
   <v>       0.50244265       0.36768535       0.49890370 </v>
   <v>       0.61936220       0.43518890       0.49743680 </v>
   <v>       0.61989095       0.56773280       0.50237045 </v>
   <v>       0.49615600       0.73429115       0.49813265 </v>
   <v>       0.29182070       0.60957330       0.49820485 </v>
   <v>       0.29774860       0.38972930       0.49896605 </v>
   <v>       0.48859180       0.26399790       0.50374515 </v>
   <v>       0.70614465       0.38416075       0.49398565 </v>
   <v>       0.70207075       0.61656500       0.50449660 </v>
  </varray>
 </structure>
</modeling>
