<?xml version="1.0" encoding="ISO-8859-1"?>
<modeling>
 <generator>
  <i name="program" type="string">vasp </i>
  <i name="version" type="string">6.2.0  </i>
  <i name="subversion" type="string">18Jan21 (build Mar 25 2021 14:28:09) complex                          parallel </i>
  <i name="platform" type="string">LinuxGNU </i>
  <i name="date" type="string">2021 12 20 </i>
  <i name="time" type="string">09:54:58 </i>
 </generator>
 <incar>
  <i type="string" name="SYSTEM">benzene</i>
  <i type="int" name="ISTART">     0</i>
  <i type="string" name="PREC">Accurate</i>
  <i type="string" name="ALGO">Normal</i>
  <i type="int" name="NELM">   200</i>
  <i type="int" name="IBRION">    -1</i>
  <i name="EDIFF">      0.00000100</i>
  <i type="int" name="NSW">     0</i>
  <i name="ENCUT">    600.00000000</i>
  <i type="logical" name="LREAL"> F  </i>
  <i type="int" name="ISMEAR">     0</i>
  <i name="SIGMA">      0.05000000</i>
  <i type="logical" name="LWAVE"> F  </i>
  <i type="logical" name="LCHARG"> T  </i>
  <i type="string" name="GGA">PE</i>
 </incar>
 <primitive_cell>
  <structure name="primitive_cell" >
   <crystal>
    <varray name="basis" >
     <v>      10.58354422       0.00000000       0.00000000 </v>
     <v>       0.00000000      10.58354422       0.00000000 </v>
     <v>       0.00000000       0.00000000      10.58354422 </v>
    </varray>
    <i name="volume">   1185.47769178 </i>
    <varray name="rec_basis" >
     <v>       0.09448631       0.00000000       0.00000000 </v>
     <v>       0.00000000       0.09448631       0.00000000 </v>
     <v>       0.00000000       0.00000000       0.09448631 </v>
    </varray>
   </crystal>
   <varray name="positions" >
    <v>       0.50119290       0.63244750       0.49069640 </v>
    <v>       0.38786660       0.56808570       0.49335650 </v>
    <v>       0.38568395       0.43856020       0.49281565 </v>
    <v>       0.49922105       0.36977480       0.49568055 </v>
    <v>       0.61664270       0.43120310       0.49795675 </v>
    <v>       0.61727300       0.56509935       0.49515255 </v>
    <v>       0.49548495       0.73097450       0.51385840 </v>
    <v>       0.29420250       0.61717125       0.50496580 </v>
    <v>       0.29870290       0.38390770       0.50516445 </v>
    <v>       0.50246050       0.26610765       0.50418385 </v>
    <v>       0.70222980       0.37777405       0.50920025 </v>
    <v>       0.69903925       0.61889420       0.49696890 </v>
   </varray>
  </structure>
  <varray name="primitive_index" >
   <v type="int" >        1 </v>
   <v type="int" >        2 </v>
   <v type="int" >        3 </v>
   <v type="int" >        4 </v>
   <v type="int" >        5 </v>
   <v type="int" >        6 </v>
   <v type="int" >        7 </v>
   <v type="int" >        8 </v>
   <v type="int" >        9 </v>
   <v type="int" >       10 </v>
   <v type="int" >       11 </v>
   <v type="int" >       12 </v>
  </varray>
 </primitive_cell>
 <kpoints>
  <generation param="Gamma">
   <v type="int" name="divisions">       1        1        1 </v>
   <v name="usershift">      0.00000000       0.00000000       0.00000000 </v>
   <v name="genvec1">      1.00000000       0.00000000       0.00000000 </v>
   <v name="genvec2">      0.00000000       1.00000000       0.00000000 </v>
   <v name="genvec3">      0.00000000       0.00000000       1.00000000 </v>
   <v name="shift">      0.00000000       0.00000000       0.00000000 </v>
  </generation>
  <varray name="kpointlist" >
   <v>       0.00000000       0.00000000       0.00000000 </v>
  </varray>
  <varray name="weights" >
   <v>       1.00000000 </v>
  </varray>
 </kpoints>
 <parameters>
  <separator name="general" >
   <i type="string" name="SYSTEM">benzene</i>
   <i type="logical" name="LCOMPAT"> F  </i>
  </separator>
  <separator name="electronic" >
   <i type="string" name="PREC">accura</i>
   <i name="ENMAX">    600.00000000</i>
   <i name="ENAUG">    644.87300000</i>
   <i name="EDIFF">      0.00000100</i>
   <i type="int" name="IALGO">    38</i>
   <i type="int" name="IWAVPR">    10</i>
   <i type="int" name="NBANDS">    24</i>
   <i type="int" name="NBANDSLOW">    -1</i>
   <i type="int" name="NBANDSHIGH">    -1</i>
   <i name="NELECT">     30.00000000</i>
   <i type="int" name="TURBO">     0</i>
   <i type="int" name="IRESTART">     0</i>
   <i type="int" name="NREBOOT">     0</i>
   <i type="int" name="NMIN">     0</i>
   <i name="EREF">      0.00000000</i>
   <separator name="electronic smearing" >
    <i type="int" name="ISMEAR">     0</i>
    <i name="SIGMA">      0.05000000</i>
    <i name="KSPACING">      0.50000000</i>
    <i type="logical" name="KGAMMA"> T  </i>
    <i type="logical" name="KBLOWUP"> T  </i>
   </separator>
   <separator name="electronic projectors" >
    <i type="logical" name="LREAL"> F  </i>
    <v name="ROPT">      0.00000000      0.00000000</v>
    <i type="int" name="LMAXPAW">  -100</i>
    <i type="int" name="LMAXMIX">     2</i>
    <i type="logical" name="NLSPLINE"> F  </i>
   </separator>
   <separator name="electronic startup" >
    <i type="int" name="ISTART">     0</i>
    <i type="int" name="ICHARG">     2</i>
    <i type="int" name="INIWAV">     1</i>
   </separator>
   <separator name="electronic spin" >
    <i type="int" name="ISPIN">     1</i>
    <i type="logical" name="LNONCOLLINEAR"> F  </i>
    <v name="MAGMOM">      1.00000000      1.00000000      1.00000000      1.00000000      1.00000000      1.00000000      1.00000000      1.00000000      1.00000000      1.00000000      1.00000000      1.00000000</v>
    <i name="NUPDOWN">     -1.00000000</i>
    <i type="logical" name="LSORBIT"> F  </i>
    <v name="SAXIS">      0.00000000      0.00000000      1.00000000</v>
    <i type="logical" name="LSPIRAL"> F  </i>
    <v name="QSPIRAL">      0.00000000      0.00000000      0.00000000</v>
    <i type="logical" name="LZEROZ"> F  </i>
   </separator>
   <separator name="electronic exchange-correlation" >
    <i type="logical" name="LASPH"> F  </i>
    <i type="logical" name="LMETAGGA"> F  </i>
   </separator>
   <separator name="electronic convergence" >
    <i type="int" name="NELM">   200</i>
    <i type="int" name="NELMDL">    -5</i>
    <i type="int" name="NELMIN">     2</i>
    <i name="ENINI">    600.00000000</i>
    <separator name="electronic convergence detail" >
     <i type="logical" name="LDIAG"> T  </i>
     <i type="logical" name="LSUBROT"> F  </i>
     <i name="WEIMIN">      0.00000000</i>
     <i name="EBREAK">      0.00000001</i>
     <i name="DEPER">      0.30000000</i>
     <i type="int" name="NRMM">     4</i>
     <i name="TIME">      0.40000000</i>
    </separator>
   </separator>
   <separator name="electronic mixer" >
    <i name="AMIX">      0.40000000</i>
    <i name="BMIX">      1.00000000</i>
    <i name="AMIN">      0.10000000</i>
    <i name="AMIX_MAG">      1.60000000</i>
    <i name="BMIX_MAG">      1.00000000</i>
    <separator name="electronic mixer details" >
     <i type="int" name="IMIX">     4</i>
     <i type="logical" name="MIXFIRST"> F  </i>
     <i type="int" name="MAXMIX">   -45</i>
     <i name="WC">    100.00000000</i>
     <i type="int" name="INIMIX">     1</i>
     <i type="int" name="MIXPRE">     1</i>
     <i type="int" name="MREMOVE">     5</i>
    </separator>
   </separator>
   <separator name="electronic dipolcorrection" >
    <i type="logical" name="LDIPOL"> F  </i>
    <i type="logical" name="LMONO"> F  </i>
    <i type="int" name="IDIPOL">     0</i>
    <i name="EPSILON">      1.00000000</i>
    <v name="DIPOL">   -100.00000000   -100.00000000   -100.00000000</v>
    <i name="EFIELD">      0.00000000</i>
   </separator>
  </separator>
  <separator name="grids" >
   <i type="int" name="NGX">    90</i>
   <i type="int" name="NGY">    90</i>
   <i type="int" name="NGZ">    90</i>
   <i type="int" name="NGXF">   180</i>
   <i type="int" name="NGYF">   180</i>
   <i type="int" name="NGZF">   180</i>
   <i type="logical" name="ADDGRID"> F  </i>
  </separator>
  <separator name="ionic" >
   <i type="int" name="NSW">     0</i>
   <i type="int" name="IBRION">    -1</i>
   <i type="int" name="MDALGO">     0</i>
   <i type="int" name="ISIF">     2</i>
   <i name="PSTRESS">      0.00000000</i>
   <i name="EDIFFG">      0.00001000</i>
   <i type="int" name="NFREE">     0</i>
   <i name="POTIM">      0.50000000</i>
   <i name="SMASS">     -3.00000000</i>
   <i name="SCALEE">      1.00000000</i>
  </separator>
  <separator name="ionic md" >
   <i name="TEBEG">      0.00010000</i>
   <i name="TEEND">      0.00010000</i>
   <i type="int" name="NBLOCK">     1</i>
   <i type="int" name="KBLOCK">     1</i>
   <i type="int" name="NPACO">   256</i>
   <i name="APACO">     16.00000000</i>
  </separator>
  <separator name="symmetry" >
   <i type="int" name="ISYM">     2</i>
   <i name="SYMPREC">      0.00001000</i>
  </separator>
  <separator name="dos" >
   <i type="int" name="LORBIT">     0</i>
   <v name="RWIGS">     -1.00000000     -1.00000000</v>
   <i type="int" name="NEDOS">   301</i>
   <i name="EMIN">     10.00000000</i>
   <i name="EMAX">    -10.00000000</i>
   <i name="EFERMI">      0.00000000</i>
  </separator>
  <separator name="writing" >
   <i type="int" name="NWRITE">     2</i>
   <i type="logical" name="LWAVE"> F  </i>
   <i type="logical" name="LDOWNSAMPLE"> F  </i>
   <i type="logical" name="LCHARG"> T  </i>
   <i type="logical" name="LPARD"> F  </i>
   <i type="logical" name="LVTOT"> F  </i>
   <i type="logical" name="LVHAR"> F  </i>
   <i type="logical" name="LELF"> F  </i>
   <i type="logical" name="LOPTICS"> F  </i>
   <v name="STM">      0.00000000      0.00000000      0.00000000      0.00000000      0.00000000      0.00000000      0.00000000</v>
  </separator>
  <separator name="performance" >
   <i type="int" name="NPAR">     4</i>
   <i type="int" name="NSIM">     4</i>
   <i type="int" name="NBLK">    -1</i>
   <i type="logical" name="LPLANE"> T  </i>
   <i type="logical" name="LSCALAPACK"> T  </i>
   <i type="logical" name="LSCAAWARE"> F  </i>
   <i type="logical" name="LSCALU"> F  </i>
   <i type="logical" name="LASYNC"> F  </i>
   <i type="logical" name="LORBITALREAL"> F  </i>
  </separator>
  <separator name="miscellaneous" >
   <i type="int" name="IDIOT">     3</i>
   <i type="int" name="PHON_NSTRUCT">    -1</i>
   <i type="logical" name="LMUSIC"> F  </i>
   <v name="POMASS">     12.01100000      1.00000000</v>
   <v name="DARWINR">      0.00000000      0.00000000</v>
   <v name="DARWINV">      1.00000000      1.00000000</v>
   <i type="logical" name="LCORR"> T  </i>
  </separator>
  <i type="logical" name="GGA_COMPAT"> T  </i>
  <i type="logical" name="LBERRY"> F  </i>
  <i type="int" name="ICORELEVEL">     0</i>
  <i type="logical" name="LDAU"> F  </i>
  <i type="int" name="I_CONSTRAINED_M">     0</i>
  <separator name="electronic exchange-correlation" >
   <i type="string" name="GGA">PE</i>
   <i type="int" name="VOSKOWN">     0</i>
   <i type="logical" name="LHFCALC"> F  </i>
   <i type="string" name="PRECFOCK"></i>
   <i type="logical" name="LSYMGRAD"> F  </i>
   <i type="logical" name="LHFONE"> F  </i>
   <i type="logical" name="LRHFCALC"> F  </i>
   <i type="logical" name="LTHOMAS"> F  </i>
   <i type="logical" name="LMODELHF"> F  </i>
   <i type="logical" name="LFOCKACE"> F  </i>
   <i name="ENCUT4O">     -1.00000000</i>
   <i type="int" name="EXXOEP">     0</i>
   <i type="int" name="FOURORBIT">     0</i>
   <i name="AEXX">      0.00000000</i>
   <i name="HFALPHA">      0.00000000</i>
   <i name="MCALPHA">      0.00000000</i>
   <i name="ALDAX">      1.00000000</i>
   <i name="AGGAX">      1.00000000</i>
   <i name="ALDAC">      1.00000000</i>
   <i name="AGGAC">      1.00000000</i>
   <i type="int" name="NKREDX">     1</i>
   <i type="int" name="NKREDY">     1</i>
   <i type="int" name="NKREDZ">     1</i>
   <i type="logical" name="SHIFTRED"> F  </i>
   <i type="logical" name="ODDONLY"> F  </i>
   <i type="logical" name="EVENONLY"> F  </i>
   <i type="int" name="LMAXFOCK">     0</i>
   <i type="int" name="NMAXFOCKAE">     0</i>
   <i type="logical" name="LFOCKAEDFT"> F  </i>
   <i name="HFSCREEN">      0.00000000</i>
   <i name="HFSCREENC">      0.00000000</i>
   <i type="int" name="NBANDSGWLOW">     0</i>
  </separator>
  <separator name="vdW DFT" >
   <i type="logical" name="LUSE_VDW"> F  </i>
   <i name="Zab_VDW">     -0.84910000</i>
   <i name="PARAM1">      0.12340000</i>
   <i name="PARAM2">      1.00000000</i>
   <i name="PARAM3">      0.00000000</i>
  </separator>
  <separator name="model GW" >
   <i type="int" name="MODEL_GW">     0</i>
   <i name="MODEL_EPS0">     59.27388459</i>
   <i name="MODEL_ALPHA">      1.00000000</i>
  </separator>
  <separator name="linear response parameters" >
   <i type="logical" name="LEPSILON"> F  </i>
   <i type="logical" name="LRPA"> F  </i>
   <i type="logical" name="LNABLA"> F  </i>
   <i type="logical" name="LVEL"> F  </i>
   <i type="int" name="KINTER">     0</i>
   <i name="CSHIFT">      0.10000000</i>
   <i name="OMEGAMAX">     -1.00000000</i>
   <i name="DEG_THRESHOLD">      0.00200000</i>
   <i name="RTIME">     -0.10000000</i>
   <i name="WPLASMAI">      0.00000000</i>
   <v name="DFIELD">      0.00000000      0.00000000      0.00000000</v>
   <v name="WPLASMA">      0.00000000      0.00000000      0.00000000      0.00000000      0.00000000      0.00000000      0.00000000      0.00000000      0.00000000</v>
  </separator>
  <separator name="orbital magnetization" >
   <i type="logical" name="NUCIND"> F  </i>
   <v name="MAGPOS">      0.00000000      0.00000000      0.00000000</v>
   <i type="logical" name="LNICSALL"> T  </i>
   <i type="logical" name="ORBITALMAG"> F  </i>
   <i type="logical" name="LMAGBLOCH"> F  </i>
   <i type="logical" name="LCHIMAG"> F  </i>
   <i type="logical" name="LGAUGE"> T  </i>
   <i type="int" name="MAGATOM">     0</i>
   <v name="MAGDIPOL">      0.00000000      0.00000000      0.00000000</v>
   <v name="AVECCONST">      0.00000000      0.00000000      0.00000000</v>
  </separator>
  <separator name="response functions" >
   <i type="logical" name="LFINITE_TEMPERATURE"> F  </i>
   <i type="logical" name="LADDER"> F  </i>
   <i type="logical" name="LRPAFORCE"> F  </i>
   <i type="logical" name="LFXC"> F  </i>
   <i type="logical" name="LHARTREE"> T  </i>
   <i type="int" name="IBSE">     0</i>
   <v type="int" name="KPOINT">    -1     0     0     0</v>
   <i type="logical" name="LTCTC"> F  </i>
   <i type="logical" name="LTCTE"> F  </i>
   <i type="logical" name="LTETE"> F  </i>
   <i type="logical" name="LTRIPLET"> F  </i>
   <i type="logical" name="LFXCEPS"> F  </i>
   <i type="logical" name="LFXHEG"> F  </i>
   <i type="int" name="NATURALO">     2</i>
   <i type="logical" name="LHOLEGF"> F  </i>
   <i type="logical" name="L2ORDER"> F  </i>
   <i type="logical" name="LDMP1"> F  </i>
   <i type="logical" name="LMP2LT"> F  </i>
   <i type="logical" name="LSMP2LT"> F  </i>
   <i type="logical" name="LGWLF"> F  </i>
   <i name="ENCUTGW">     -2.00000000</i>
   <i name="ENCUTGWSOFT">     -2.00000000</i>
   <i name="ENCUTLF">     -1.00000000</i>
   <i type="logical" name="LESF_SPLINES"> F  </i>
   <i type="int" name="LMAXMP2">    -1</i>
   <i name="SCISSOR">      0.00000000</i>
   <i type="int" name="NOMEGA">     0</i>
   <i type="int" name="NOMEGAR">     0</i>
   <i type="int" name="NBANDSGW">    -1</i>
   <i type="int" name="NBANDSO">    -1</i>
   <i type="int" name="NBANDSV">    -1</i>
   <i type="int" name="NELM">   200</i>
   <i type="int" name="NELMHF">     1</i>
   <i type="int" name="DIM">     3</i>
   <i type="int" name="IESPILON">     4</i>
   <i type="int" name="ANTIRES">     0</i>
   <i name="OMEGAMAX">    -30.00000000</i>
   <i name="OMEGAMIN">    -30.00000000</i>
   <i name="OMEGATL">   -200.00000000</i>
   <i type="int" name="OMEGAGRID">     0</i>
   <i name="CSHIFT">     -0.10000000</i>
   <i type="logical" name="LSELFENERGY"> F  </i>
   <i type="logical" name="LSPECTRAL"> F  </i>
   <i type="logical" name="LSPECTRALGW"> F  </i>
   <i type="logical" name="LSINGLES"> F  </i>
   <i type="logical" name="LFERMIGW"> F  </i>
   <i type="logical" name="ODDONLYGW"> F  </i>
   <i type="logical" name="EVENONLYGW"> F  </i>
   <i type="int" name="NKREDLFX">     1</i>
   <i type="int" name="NKREDLFY">     1</i>
   <i type="int" name="NKREDLFZ">     1</i>
   <i type="int" name="MAXMEM">  2800</i>
   <i type="int" name="TELESCOPE">     0</i>
   <i type="int" name="NTAUPAR">    -1</i>
   <i type="int" name="NOMEGAPAR">    -1</i>
   <i name="DAMP_NEWTON">      0.80000001</i>
   <i name="LAMBDA">      1.00000000</i>
  </separator>
  <separator name="External order field" >
   <i name="OFIELD_KAPPA">      0.00000000</i>
   <v name="OFIELD_K">      0.00000000      0.00000000      0.00000000</v>
   <i name="OFIELD_Q6_NEAR">      0.00000000</i>
   <i name="OFIELD_Q6_FAR">      0.00000000</i>
   <i name="OFIELD_A">      0.00000000</i>
  </separator>
 </parameters>
 <atominfo>
  <atoms>      12 </atoms>
  <types>       2 </types>
  <array name="atoms" >
   <dimension dim="1">ion</dimension>
   <field type="string">element</field>
   <field type="int">atomtype</field>
   <set>
    <rc><c>C </c><c>   1</c></rc>
    <rc><c>C </c><c>   1</c></rc>
    <rc><c>C </c><c>   1</c></rc>
    <rc><c>C </c><c>   1</c></rc>
    <rc><c>C </c><c>   1</c></rc>
    <rc><c>C </c><c>   1</c></rc>
    <rc><c>H </c><c>   2</c></rc>
    <rc><c>H </c><c>   2</c></rc>
    <rc><c>H </c><c>   2</c></rc>
    <rc><c>H </c><c>   2</c></rc>
    <rc><c>H </c><c>   2</c></rc>
    <rc><c>H </c><c>   2</c></rc>
   </set>
  </array>
  <array name="atomtypes" >
   <dimension dim="1">type</dimension>
   <field type="int">atomspertype</field>
   <field type="string">element</field>
   <field>mass</field>
   <field>valence</field>
   <field type="string">pseudopotential</field>
   <set>
    <rc><c>   6</c><c>C </c><c>     12.01100000</c><c>      4.00000000</c><c>  PAW_PBE C 08Apr2002                   </c></rc>
    <rc><c>   6</c><c>H </c><c>      1.00000000</c><c>      1.00000000</c><c>  PAW_PBE H 15Jun2001                   </c></rc>
   </set>
  </array>
 </atominfo>
 <structure name="initialpos" >
  <crystal>
   <varray name="basis" >
    <v>      10.58354422       0.00000000       0.00000000 </v>
    <v>       0.00000000      10.58354422       0.00000000 </v>
    <v>       0.00000000       0.00000000      10.58354422 </v>
   </varray>
   <i name="volume">   1185.47769178 </i>
   <varray name="rec_basis" >
    <v>       0.09448631       0.00000000       0.00000000 </v>
    <v>       0.00000000       0.09448631       0.00000000 </v>
    <v>       0.00000000       0.00000000       0.09448631 </v>
   </varray>
  </crystal>
  <varray name="positions" >
   <v>       0.50119290       0.63244750       0.49069640 </v>
   <v>       0.38786660       0.56808570       0.49335650 </v>
   <v>       0.38568395       0.43856020       0.49281565 </v>
   <v>       0.49922105       0.36977480       0.49568055 </v>
   <v>       0.61664270       0.43120310       0.49795675 </v>
   <v>       0.61727300       0.56509935       0.49515255 </v>
   <v>       0.49548495       0.73097450       0.51385840 </v>
   <v>       0.29420250       0.61717125       0.50496580 </v>
   <v>       0.29870290       0.38390770       0.50516445 </v>
   <v>       0.50246050       0.26610765       0.50418385 </v>
   <v>       0.70222980       0.37777405       0.50920025 </v>
   <v>       0.69903925       0.61889420       0.49696890 </v>
  </varray>
 </structure>
 <calculation>
  <scstep>
   <time name="dav">    0.21    0.21</time>
   <time name="total">    0.47    0.48</time>
   <energy>
    <i name="alphaZ">      3.48814018 </i>
    <i name="ewald">   1131.49826622 </i>
    <i name="hartreedc">  -1765.23948474 </i>
    <i name="XCdc">     91.34026876 </i>
    <i name="pawpsdc">    663.93644290 </i>
    <i name="pawaedc">   -667.40614445 </i>
    <i name="eentropy">     -0.00000000 </i>
    <i name="bandstr">   -198.80655036 </i>
    <i name="atom">    957.82965714 </i>
    <i name="e_fr_energy">    216.64059564 </i>
    <i name="e_wo_entrp">    216.64059564 </i>
    <i name="e_0_energy">    216.64059564 </i>
   </energy>
  </scstep>
  <scstep>
   <time name="dav">    0.25    0.25</time>
   <time name="total">    0.25    0.25</time>
   <energy>
    <i name="e_fr_energy">     -2.46815832 </i>
    <i name="e_wo_entrp">     -2.46815832 </i>
    <i name="e_0_energy">     -2.46815832 </i>
   </energy>
  </scstep>
  <scstep>
   <time name="dav">    0.21    0.21</time>
   <time name="total">    0.21    0.21</time>
   <energy>
    <i name="e_fr_energy">    -78.02530074 </i>
    <i name="e_wo_entrp">    -78.02530074 </i>
    <i name="e_0_energy">    -78.02530074 </i>
   </energy>
  </scstep>
  <scstep>
   <time name="dav">    0.19    0.19</time>
   <time name="total">    0.19    0.19</time>
   <energy>
    <i name="e_fr_energy">    -83.89523538 </i>
    <i name="e_wo_entrp">    -83.89523538 </i>
    <i name="e_0_energy">    -83.89523538 </i>
   </energy>
  </scstep>
  <scstep>
   <time name="dav">    0.25    0.25</time>
   <time name="total">    0.29    0.29</time>
   <energy>
    <i name="e_fr_energy">    -84.01521402 </i>
    <i name="e_wo_entrp">    -84.01521402 </i>
    <i name="e_0_energy">    -84.01521402 </i>
   </energy>
  </scstep>
  <scstep>
   <time name="dav">    0.22    0.22</time>
   <time name="total">    0.52    0.52</time>
   <energy>
    <i name="e_fr_energy">    -77.70846707 </i>
    <i name="e_wo_entrp">    -77.70846707 </i>
    <i name="e_0_energy">    -77.70846707 </i>
   </energy>
  </scstep>
  <scstep>
   <time name="dav">    0.25    0.25</time>
   <time name="total">    0.55    0.55</time>
   <energy>
    <i name="e_fr_energy">    -75.88558090 </i>
    <i name="e_wo_entrp">    -75.88558090 </i>
    <i name="e_0_energy">    -75.88558090 </i>
   </energy>
  </scstep>
  <scstep>
   <time name="dav">    0.19    0.19</time>
   <time name="total">    0.48    0.49</time>
   <energy>
    <i name="e_fr_energy">    -75.71686704 </i>
    <i name="e_wo_entrp">    -75.71686704 </i>
    <i name="e_0_energy">    -75.71686704 </i>
   </energy>
  </scstep>
  <scstep>
   <time name="dav">    0.23    0.23</time>
   <time name="total">    0.52    0.53</time>
   <energy>
    <i name="e_fr_energy">    -75.69326653 </i>
    <i name="e_wo_entrp">    -75.69326653 </i>
    <i name="e_0_energy">    -75.69326653 </i>
   </energy>
  </scstep>
  <scstep>
   <time name="dav">    0.21    0.21</time>
   <time name="total">    0.50    0.50</time>
   <energy>
    <i name="e_fr_energy">    -75.68826558 </i>
    <i name="e_wo_entrp">    -75.68826558 </i>
    <i name="e_0_energy">    -75.68826558 </i>
   </energy>
  </scstep>
  <scstep>
   <time name="dav">    0.20    0.20</time>
   <time name="total">    0.49    0.49</time>
   <energy>
    <i name="e_fr_energy">    -75.68113568 </i>
    <i name="e_wo_entrp">    -75.68113568 </i>
    <i name="e_0_energy">    -75.68113568 </i>
   </energy>
  </scstep>
  <scstep>
   <time name="dav">    0.21    0.21</time>
   <time name="total">    0.49    0.50</time>
   <energy>
    <i name="e_fr_energy">    -75.68599309 </i>
    <i name="e_wo_entrp">    -75.68599309 </i>
    <i name="e_0_energy">    -75.68599309 </i>
   </energy>
  </scstep>
  <scstep>
   <time name="dav">    0.19    0.19</time>
   <time name="total">    0.47    0.47</time>
   <energy>
    <i name="e_fr_energy">    -75.69613648 </i>
    <i name="e_wo_entrp">    -75.69613648 </i>
    <i name="e_0_energy">    -75.69613648 </i>
   </energy>
  </scstep>
  <scstep>
   <time name="dav">    0.21    0.21</time>
   <time name="total">    0.49    0.49</time>
   <energy>
    <i name="e_fr_energy">    -75.70288328 </i>
    <i name="e_wo_entrp">    -75.70288328 </i>
    <i name="e_0_energy">    -75.70288328 </i>
   </energy>
  </scstep>
  <scstep>
   <time name="dav">    0.21    0.21</time>
   <time name="total">    0.48    0.49</time>
   <energy>
    <i name="e_fr_energy">    -75.70589498 </i>
    <i name="e_wo_entrp">    -75.70589498 </i>
    <i name="e_0_energy">    -75.70589498 </i>
   </energy>
  </scstep>
  <scstep>
   <time name="dav">    0.23    0.23</time>
   <time name="total">    0.50    0.51</time>
   <energy>
    <i name="e_fr_energy">    -75.70683928 </i>
    <i name="e_wo_entrp">    -75.70683928 </i>
    <i name="e_0_energy">    -75.70683928 </i>
   </energy>
  </scstep>
  <scstep>
   <time name="dav">    0.21    0.21</time>
   <time name="total">    0.49    0.49</time>
   <energy>
    <i name="e_fr_energy">    -75.70727217 </i>
    <i name="e_wo_entrp">    -75.70727217 </i>
    <i name="e_0_energy">    -75.70727217 </i>
   </energy>
  </scstep>
  <scstep>
   <time name="dav">    0.22    0.22</time>
   <time name="total">    0.50    0.51</time>
   <energy>
    <i name="e_fr_energy">    -75.70735148 </i>
    <i name="e_wo_entrp">    -75.70735148 </i>
    <i name="e_0_energy">    -75.70735148 </i>
   </energy>
  </scstep>
  <scstep>
   <time name="dav">    0.19    0.19</time>
   <time name="total">    0.47    0.48</time>
   <energy>
    <i name="e_fr_energy">    -75.70739218 </i>
    <i name="e_wo_entrp">    -75.70739218 </i>
    <i name="e_0_energy">    -75.70739218 </i>
   </energy>
  </scstep>
  <scstep>
   <time name="dav">    0.19    0.19</time>
   <time name="total">    0.48    0.48</time>
   <energy>
    <i name="e_fr_energy">    -75.70740298 </i>
    <i name="e_wo_entrp">    -75.70740298 </i>
    <i name="e_0_energy">    -75.70740298 </i>
   </energy>
  </scstep>
  <scstep>
   <time name="dav">    0.19    0.19</time>
   <time name="total">    0.48    0.48</time>
   <energy>
    <i name="e_fr_energy">    -75.70740701 </i>
    <i name="e_wo_entrp">    -75.70740701 </i>
    <i name="e_0_energy">    -75.70740701 </i>
   </energy>
  </scstep>
  <scstep>
   <time name="dav">    0.17    0.17</time>
   <time name="total">    0.46    0.46</time>
   <energy>
    <i name="e_fr_energy">    -75.70740824 </i>
    <i name="e_wo_entrp">    -75.70740824 </i>
    <i name="e_0_energy">    -75.70740824 </i>
   </energy>
  </scstep>
  <scstep>
   <time name="dav">    0.15    0.15</time>
   <time name="total">    0.40    0.41</time>
   <energy>
    <i name="alphaZ">      3.48814018 </i>
    <i name="ewald">   1131.49826622 </i>
    <i name="hartreedc">  -1912.79034908 </i>
    <i name="XCdc">     98.27909742 </i>
    <i name="pawpsdc">   2512.07794067 </i>
    <i name="pawaedc">  -2516.34269323 </i>
    <i name="eentropy">     -0.00000000 </i>
    <i name="bandstr">   -349.74746778 </i>
    <i name="atom">    957.82965714 </i>
    <i name="e_fr_energy">    -75.70740845 </i>
    <i name="e_wo_entrp">    -75.70740845 </i>
    <i name="e_0_energy">    -75.70740845 </i>
   </energy>
  </scstep>
  <structure>
   <crystal>
    <varray name="basis" >
     <v>      10.58354422       0.00000000       0.00000000 </v>
     <v>       0.00000000      10.58354422       0.00000000 </v>
     <v>       0.00000000       0.00000000      10.58354422 </v>
    </varray>
    <i name="volume">   1185.47769178 </i>
    <varray name="rec_basis" >
     <v>       0.09448631       0.00000000       0.00000000 </v>
     <v>       0.00000000       0.09448631       0.00000000 </v>
     <v>       0.00000000       0.00000000       0.09448631 </v>
    </varray>
   </crystal>
   <varray name="positions" >
    <v>       0.50119290       0.63244750       0.49069640 </v>
    <v>       0.38786660       0.56808570       0.49335650 </v>
    <v>       0.38568395       0.43856020       0.49281565 </v>
    <v>       0.49922105       0.36977480       0.49568055 </v>
    <v>       0.61664270       0.43120310       0.49795675 </v>
    <v>       0.61727300       0.56509935       0.49515255 </v>
    <v>       0.49548495       0.73097450       0.51385840 </v>
    <v>       0.29420250       0.61717125       0.50496580 </v>
    <v>       0.29870290       0.38390770       0.50516445 </v>
    <v>       0.50246050       0.26610765       0.50418385 </v>
    <v>       0.70222980       0.37777405       0.50920025 </v>
    <v>       0.69903925       0.61889420       0.49696890 </v>
   </varray>
  </structure>
  <varray name="forces" >
   <v>       0.82223207      -0.69780853       0.81156056 </v>
   <v>      -1.74476101       0.62878882       0.11032041 </v>
   <v>       0.32957410      -1.84580766       0.31576280 </v>
   <v>       0.53195066      -0.27399892       0.13821525 </v>
   <v>      -0.96581774       1.36526972      -0.11989510 </v>
   <v>      -2.39882718      -1.04114461      -0.28729123 </v>
   <v>       0.40234054       0.81353297      -0.41424833 </v>
   <v>       1.01034582      -0.17567219      -0.24914673 </v>
   <v>      -0.07116379       0.26464677      -0.25445560 </v>
   <v>      -0.38734291       0.28220160      -0.10957327 </v>
   <v>       0.51120702      -0.22392046      -0.09498580 </v>
   <v>       1.96026244       0.90391249       0.15373704 </v>
  </varray>
  <varray name="stress" >
   <v>       0.61246606       4.16987919       0.28891181 </v>
   <v>       4.16987918       1.75807655       0.38888148 </v>
   <v>       0.28891181       0.38888148      -0.45870568 </v>
  </varray>
  <energy>
   <i name="e_fr_energy">    -75.70740845 </i>
   <i name="e_wo_entrp">    -75.70740845 </i>
   <i name="e_0_energy">    -75.70740845 </i>
  </energy>
  <time name="totalsc">   15.32   15.49</time>
  <eigenvalues>
   <array>
    <dimension dim="1">band</dimension>
    <dimension dim="2">kpoint</dimension>
    <dimension dim="3">spin</dimension>
    <field>eigene</field>
    <field>occ</field>
    <set>
     <set comment="spin 1">
      <set comment="kpoint 1">
       <r>  -20.7704    1.0000 </r>
       <r>  -18.0800    1.0000 </r>
       <r>  -17.9405    1.0000 </r>
       <r>  -14.5224    1.0000 </r>
       <r>  -14.3072    1.0000 </r>
       <r>  -12.4561    1.0000 </r>
       <r>  -10.8800    1.0000 </r>
       <r>  -10.3522    1.0000 </r>
       <r>   -9.8845    1.0000 </r>
       <r>   -9.6814    1.0000 </r>
       <r>   -8.6331    1.0000 </r>
       <r>   -7.7861    1.0000 </r>
       <r>   -7.7582    1.0000 </r>
       <r>   -5.9908    1.0000 </r>
       <r>   -5.8307    1.0000 </r>
       <r>   -0.9554    0.0000 </r>
       <r>   -0.8093    0.0000 </r>
       <r>   -0.4342    0.0000 </r>
       <r>    0.7282    0.0000 </r>
       <r>    0.8222    0.0000 </r>
       <r>    0.8505    0.0000 </r>
       <r>    0.9223    0.0000 </r>
       <r>    0.9884    0.0000 </r>
       <r>    1.4530    0.0000 </r>
      </set>
     </set>
    </set>
   </array>
  </eigenvalues>
  <separator name="orbital magnetization" >
   <v name="MAGDIPOLOUT">      0.00000000      0.00000000      0.00000000</v>
  </separator>
  <dos>
   <i name="efermi">     -5.57420815 </i>
   <total>
    <array>
     <dimension dim="1">gridpoints</dimension>
     <dimension dim="2">spin</dimension>
     <field>energy</field>
     <field>total</field>
     <field>integrated</field>
     <set>
      <set comment="spin 1">
       <r>   -21.8815     0.0000     0.0000 </r>
       <r>   -21.8001     0.0000     0.0000 </r>
       <r>   -21.7186     0.0000     0.0000 </r>
       <r>   -21.6371     0.0000     0.0000 </r>
       <r>   -21.5556     0.0000     0.0000 </r>
       <r>   -21.4741     0.0000     0.0000 </r>
       <r>   -21.3926     0.0000     0.0000 </r>
       <r>   -21.3111     0.0000     0.0000 </r>
       <r>   -21.2297     0.0000     0.0000 </r>
       <r>   -21.1482     0.0000     0.0000 </r>
       <r>   -21.0667     0.0000     0.0000 </r>
       <r>   -20.9852     0.0000     0.0000 </r>
       <r>   -20.9037     0.0020     0.0002 </r>
       <r>   -20.8222     1.7464     0.1425 </r>
       <r>   -20.7407    17.8627     1.5980 </r>
       <r>   -20.6593     4.9126     1.9983 </r>
       <r>   -20.5778     0.0205     2.0000 </r>
       <r>   -20.4963     0.0000     2.0000 </r>
       <r>   -20.4148     0.0000     2.0000 </r>
       <r>   -20.3333     0.0000     2.0000 </r>
       <r>   -20.2518     0.0000     2.0000 </r>
       <r>   -20.1703     0.0000     2.0000 </r>
       <r>   -20.0889     0.0000     2.0000 </r>
       <r>   -20.0074     0.0000     2.0000 </r>
       <r>   -19.9259     0.0000     2.0000 </r>
       <r>   -19.8444     0.0000     2.0000 </r>
       <r>   -19.7629     0.0000     2.0000 </r>
       <r>   -19.6814     0.0000     2.0000 </r>
       <r>   -19.5999     0.0000     2.0000 </r>
       <r>   -19.5185     0.0000     2.0000 </r>
       <r>   -19.4370     0.0000     2.0000 </r>
       <r>   -19.3555     0.0000     2.0000 </r>
       <r>   -19.2740     0.0000     2.0000 </r>
       <r>   -19.1925     0.0000     2.0000 </r>
       <r>   -19.1110     0.0000     2.0000 </r>
       <r>   -19.0295     0.0000     2.0000 </r>
       <r>   -18.9481     0.0000     2.0000 </r>
       <r>   -18.8666     0.0000     2.0000 </r>
       <r>   -18.7851     0.0000     2.0000 </r>
       <r>   -18.7036     0.0000     2.0000 </r>
       <r>   -18.6221     0.0000     2.0000 </r>
       <r>   -18.5406     0.0000     2.0000 </r>
       <r>   -18.4591     0.0000     2.0000 </r>
       <r>   -18.3777     0.0000     2.0000 </r>
       <r>   -18.2962     0.0000     2.0000 </r>
       <r>   -18.2147     0.0017     2.0001 </r>
       <r>   -18.1332     1.6232     2.1324 </r>
       <r>   -18.0517    17.7403     3.5780 </r>
       <r>   -17.9702    10.0596     4.3977 </r>
       <r>   -17.8887    17.9010     5.8564 </r>
       <r>   -17.8073     1.7605     5.9998 </r>
       <r>   -17.7258     0.0020     6.0000 </r>
       <r>   -17.6443     0.0000     6.0000 </r>
       <r>   -17.5628     0.0000     6.0000 </r>
       <r>   -17.4813     0.0000     6.0000 </r>
       <r>   -17.3998     0.0000     6.0000 </r>
       <r>   -17.3183     0.0000     6.0000 </r>
       <r>   -17.2369     0.0000     6.0000 </r>
       <r>   -17.1554     0.0000     6.0000 </r>
       <r>   -17.0739     0.0000     6.0000 </r>
       <r>   -16.9924     0.0000     6.0000 </r>
       <r>   -16.9109     0.0000     6.0000 </r>
       <r>   -16.8294     0.0000     6.0000 </r>
       <r>   -16.7479     0.0000     6.0000 </r>
       <r>   -16.6665     0.0000     6.0000 </r>
       <r>   -16.5850     0.0000     6.0000 </r>
       <r>   -16.5035     0.0000     6.0000 </r>
       <r>   -16.4220     0.0000     6.0000 </r>
       <r>   -16.3405     0.0000     6.0000 </r>
       <r>   -16.2590     0.0000     6.0000 </r>
       <r>   -16.1775     0.0000     6.0000 </r>
       <r>   -16.0961     0.0000     6.0000 </r>
       <r>   -16.0146     0.0000     6.0000 </r>
       <r>   -15.9331     0.0000     6.0000 </r>
       <r>   -15.8516     0.0000     6.0000 </r>
       <r>   -15.7701     0.0000     6.0000 </r>
       <r>   -15.6886     0.0000     6.0000 </r>
       <r>   -15.6071     0.0000     6.0000 </r>
       <r>   -15.5257     0.0000     6.0000 </r>
       <r>   -15.4442     0.0000     6.0000 </r>
       <r>   -15.3627     0.0000     6.0000 </r>
       <r>   -15.2812     0.0000     6.0000 </r>
       <r>   -15.1997     0.0000     6.0000 </r>
       <r>   -15.1182     0.0000     6.0000 </r>
       <r>   -15.0367     0.0000     6.0000 </r>
       <r>   -14.9553     0.0000     6.0000 </r>
       <r>   -14.8738     0.0000     6.0000 </r>
       <r>   -14.7923     0.0000     6.0000 </r>
       <r>   -14.7108     0.0000     6.0000 </r>
       <r>   -14.6293     0.0306     6.0025 </r>
       <r>   -14.5478     5.7634     6.4721 </r>
       <r>   -14.4663    17.3660     7.8872 </r>
       <r>   -14.3849     1.7274     8.0280 </r>
       <r>   -14.3034    12.9888     9.0864 </r>
       <r>   -14.2219    11.0180     9.9842 </r>
       <r>   -14.1404     0.1940    10.0000 </r>
       <r>   -14.0589     0.0000    10.0000 </r>
       <r>   -13.9774     0.0000    10.0000 </r>
       <r>   -13.8959     0.0000    10.0000 </r>
       <r>   -13.8145     0.0000    10.0000 </r>
       <r>   -13.7330     0.0000    10.0000 </r>
       <r>   -13.6515     0.0000    10.0000 </r>
       <r>   -13.5700     0.0000    10.0000 </r>
       <r>   -13.4885     0.0000    10.0000 </r>
       <r>   -13.4070     0.0000    10.0000 </r>
       <r>   -13.3255     0.0000    10.0000 </r>
       <r>   -13.2441     0.0000    10.0000 </r>
       <r>   -13.1626     0.0000    10.0000 </r>
       <r>   -13.0811     0.0000    10.0000 </r>
       <r>   -12.9996     0.0000    10.0000 </r>
       <r>   -12.9181     0.0000    10.0000 </r>
       <r>   -12.8366     0.0000    10.0000 </r>
       <r>   -12.7551     0.0000    10.0000 </r>
       <r>   -12.6737     0.0000    10.0000 </r>
       <r>   -12.5922     0.0015    10.0001 </r>
       <r>   -12.5107     1.5052    10.1228 </r>
       <r>   -12.4292    17.5599    11.5537 </r>
       <r>   -12.3477     5.4510    11.9978 </r>
       <r>   -12.2662     0.0266    12.0000 </r>
       <r>   -12.1847     0.0000    12.0000 </r>
       <r>   -12.1033     0.0000    12.0000 </r>
       <r>   -12.0218     0.0000    12.0000 </r>
       <r>   -11.9403     0.0000    12.0000 </r>
       <r>   -11.8588     0.0000    12.0000 </r>
       <r>   -11.7773     0.0000    12.0000 </r>
       <r>   -11.6958     0.0000    12.0000 </r>
       <r>   -11.6143     0.0000    12.0000 </r>
       <r>   -11.5329     0.0000    12.0000 </r>
       <r>   -11.4514     0.0000    12.0000 </r>
       <r>   -11.3699     0.0000    12.0000 </r>
       <r>   -11.2884     0.0000    12.0000 </r>
       <r>   -11.2069     0.0000    12.0000 </r>
       <r>   -11.1254     0.0000    12.0000 </r>
       <r>   -11.0439     0.0000    12.0000 </r>
       <r>   -10.9625     0.2418    12.0197 </r>
       <r>   -10.8810    11.7649    12.9784 </r>
       <r>   -10.7995    12.2583    13.9773 </r>
       <r>   -10.7180     0.2791    14.0000 </r>
       <r>   -10.6365     0.0001    14.0000 </r>
       <r>   -10.5550     0.0000    14.0000 </r>
       <r>   -10.4735     0.0073    14.0006 </r>
       <r>   -10.3921     3.1784    14.2596 </r>
       <r>   -10.3106    18.4250    15.7610 </r>
       <r>   -10.2291     2.9273    15.9995 </r>
       <r>   -10.1476     0.0061    16.0000 </r>
       <r>   -10.0661     0.0000    16.0000 </r>
       <r>    -9.9846     0.0568    16.0046 </r>
       <r>    -9.9031     7.2821    16.5980 </r>
       <r>    -9.8217    16.2798    17.9246 </r>
       <r>    -9.7402     2.1092    18.0965 </r>
       <r>    -9.6587    16.9739    19.4796 </r>
       <r>    -9.5772     6.3472    19.9968 </r>
       <r>    -9.4957     0.0393    20.0000 </r>
       <r>    -9.4142     0.0000    20.0000 </r>
       <r>    -9.3327     0.0000    20.0000 </r>
       <r>    -9.2513     0.0000    20.0000 </r>
       <r>    -9.1698     0.0000    20.0000 </r>
       <r>    -9.0883     0.0000    20.0000 </r>
       <r>    -9.0068     0.0000    20.0000 </r>
       <r>    -8.9253     0.0000    20.0000 </r>
       <r>    -8.8438     0.0000    20.0000 </r>
       <r>    -8.7623     0.0032    20.0003 </r>
       <r>    -8.6809     2.1712    20.1772 </r>
       <r>    -8.5994    18.2042    21.6606 </r>
       <r>    -8.5179     4.1519    21.9989 </r>
       <r>    -8.4364     0.0137    22.0000 </r>
       <r>    -8.3549     0.0000    22.0000 </r>
       <r>    -8.2734     0.0000    22.0000 </r>
       <r>    -8.1919     0.0000    22.0000 </r>
       <r>    -8.1105     0.0000    22.0000 </r>
       <r>    -8.0290     0.0000    22.0000 </r>
       <r>    -7.9475     0.0001    22.0000 </r>
       <r>    -7.8660     0.3206    22.0261 </r>
       <r>    -7.7845    18.0027    23.4931 </r>
       <r>    -7.7030    29.0815    25.8628 </r>
       <r>    -7.6215     1.6821    25.9999 </r>
       <r>    -7.5401     0.0014    26.0000 </r>
       <r>    -7.4586     0.0000    26.0000 </r>
       <r>    -7.3771     0.0000    26.0000 </r>
       <r>    -7.2956     0.0000    26.0000 </r>
       <r>    -7.2141     0.0000    26.0000 </r>
       <r>    -7.1326     0.0000    26.0000 </r>
       <r>    -7.0511     0.0000    26.0000 </r>
       <r>    -6.9697     0.0000    26.0000 </r>
       <r>    -6.8882     0.0000    26.0000 </r>
       <r>    -6.8067     0.0000    26.0000 </r>
       <r>    -6.7252     0.0000    26.0000 </r>
       <r>    -6.6437     0.0000    26.0000 </r>
       <r>    -6.5622     0.0000    26.0000 </r>
       <r>    -6.4807     0.0000    26.0000 </r>
       <r>    -6.3993     0.0000    26.0000 </r>
       <r>    -6.3178     0.0000    26.0000 </r>
       <r>    -6.2363     0.0000    26.0000 </r>
       <r>    -6.1548     0.0000    26.0000 </r>
       <r>    -6.0733     0.2413    26.0197 </r>
       <r>    -5.9918    11.7575    26.9777 </r>
       <r>    -5.9103    12.5647    28.0016 </r>
       <r>    -5.8289    12.7778    29.0428 </r>
       <r>    -5.7474    11.5217    29.9816 </r>
       <r>    -5.6659     0.2252    30.0000 </r>
       <r>    -5.5844     0.0000    30.0000 </r>
       <r>    -5.5029     0.0000    30.0000 </r>
       <r>    -5.4214     0.0000    30.0000 </r>
       <r>    -5.3399     0.0000    30.0000 </r>
       <r>    -5.2585     0.0000    30.0000 </r>
       <r>    -5.1770     0.0000    30.0000 </r>
       <r>    -5.0955     0.0000    30.0000 </r>
       <r>    -5.0140     0.0000    30.0000 </r>
       <r>    -4.9325     0.0000    30.0000 </r>
       <r>    -4.8510     0.0000    30.0000 </r>
       <r>    -4.7695     0.0000    30.0000 </r>
       <r>    -4.6881     0.0000    30.0000 </r>
       <r>    -4.6066     0.0000    30.0000 </r>
       <r>    -4.5251     0.0000    30.0000 </r>
       <r>    -4.4436     0.0000    30.0000 </r>
       <r>    -4.3621     0.0000    30.0000 </r>
       <r>    -4.2806     0.0000    30.0000 </r>
       <r>    -4.1991     0.0000    30.0000 </r>
       <r>    -4.1176     0.0000    30.0000 </r>
       <r>    -4.0362     0.0000    30.0000 </r>
       <r>    -3.9547     0.0000    30.0000 </r>
       <r>    -3.8732     0.0000    30.0000 </r>
       <r>    -3.7917     0.0000    30.0000 </r>
       <r>    -3.7102     0.0000    30.0000 </r>
       <r>    -3.6287     0.0000    30.0000 </r>
       <r>    -3.5472     0.0000    30.0000 </r>
       <r>    -3.4658     0.0000    30.0000 </r>
       <r>    -3.3843     0.0000    30.0000 </r>
       <r>    -3.3028     0.0000    30.0000 </r>
       <r>    -3.2213     0.0000    30.0000 </r>
       <r>    -3.1398     0.0000    30.0000 </r>
       <r>    -3.0583     0.0000    30.0000 </r>
       <r>    -2.9768     0.0000    30.0000 </r>
       <r>    -2.8954     0.0000    30.0000 </r>
       <r>    -2.8139     0.0000    30.0000 </r>
       <r>    -2.7324     0.0000    30.0000 </r>
       <r>    -2.6509     0.0000    30.0000 </r>
       <r>    -2.5694     0.0000    30.0000 </r>
       <r>    -2.4879     0.0000    30.0000 </r>
       <r>    -2.4064     0.0000    30.0000 </r>
       <r>    -2.3250     0.0000    30.0000 </r>
       <r>    -2.2435     0.0000    30.0000 </r>
       <r>    -2.1620     0.0000    30.0000 </r>
       <r>    -2.0805     0.0000    30.0000 </r>
       <r>    -1.9990     0.0000    30.0000 </r>
       <r>    -1.9175     0.0000    30.0000 </r>
       <r>    -1.8360     0.0000    30.0000 </r>
       <r>    -1.7546     0.0000    30.0000 </r>
       <r>    -1.6731     0.0000    30.0000 </r>
       <r>    -1.5916     0.0000    30.0000 </r>
       <r>    -1.5101     0.0000    30.0000 </r>
       <r>    -1.4286     0.0000    30.0000 </r>
       <r>    -1.3471     0.0000    30.0000 </r>
       <r>    -1.2656     0.0000    30.0000 </r>
       <r>    -1.1842     0.0000    30.0000 </r>
       <r>    -1.1027     0.0004    30.0000 </r>
       <r>    -1.0212     0.7699    30.0628 </r>
       <r>    -0.9397    15.7129    31.3431 </r>
       <r>    -0.8582    10.0296    32.1604 </r>
       <r>    -0.7767    18.1932    33.6429 </r>
       <r>    -0.6952     4.3668    33.9987 </r>
       <r>    -0.6138     0.0154    34.0000 </r>
       <r>    -0.5323     0.0677    34.0055 </r>
       <r>    -0.4508     7.7642    34.6382 </r>
       <r>    -0.3693    15.8953    35.9334 </r>
       <r>    -0.2878     0.8166    36.0000 </r>
       <r>    -0.2063     0.0004    36.0000 </r>
       <r>    -0.1248     0.0000    36.0000 </r>
       <r>    -0.0434     0.0000    36.0000 </r>
       <r>     0.0381     0.0000    36.0000 </r>
       <r>     0.1196     0.0000    36.0000 </r>
       <r>     0.2011     0.0000    36.0000 </r>
       <r>     0.2826     0.0000    36.0000 </r>
       <r>     0.3641     0.0000    36.0000 </r>
       <r>     0.4456     0.0000    36.0000 </r>
       <r>     0.5270     0.0000    36.0000 </r>
       <r>     0.6085     0.0087    36.0007 </r>
       <r>     0.6900     3.4322    36.2804 </r>
       <r>     0.7715    20.5718    37.9567 </r>
       <r>     0.8530    33.9415    40.7224 </r>
       <r>     0.9345    32.5863    43.3778 </r>
       <r>     1.0160    26.7383    45.5566 </r>
       <r>     1.0974     5.4170    45.9980 </r>
       <r>     1.1789     0.0250    46.0000 </r>
       <r>     1.2604     0.0000    46.0000 </r>
       <r>     1.3419     0.0205    46.0017 </r>
       <r>     1.4234     4.9126    46.4020 </r>
       <r>     1.5049    17.8627    47.8575 </r>
       <r>     1.5864     1.7464    47.9998 </r>
       <r>     1.6678     0.0020    48.0000 </r>
       <r>     1.7493     0.0000    48.0000 </r>
       <r>     1.8308     0.0000    48.0000 </r>
       <r>     1.9123     0.0000    48.0000 </r>
       <r>     1.9938     0.0000    48.0000 </r>
       <r>     2.0753     0.0000    48.0000 </r>
       <r>     2.1568     0.0000    48.0000 </r>
       <r>     2.2382     0.0000    48.0000 </r>
       <r>     2.3197     0.0000    48.0000 </r>
       <r>     2.4012     0.0000    48.0000 </r>
       <r>     2.4827     0.0000    48.0000 </r>
       <r>     2.5642     0.0000    48.0000 </r>
      </set>
     </set>
    </array>
   </total>
  </dos>
 </calculation>
 <structure name="finalpos" >
  <crystal>
   <varray name="basis" >
    <v>      10.58354422       0.00000000       0.00000000 </v>
    <v>       0.00000000      10.58354422       0.00000000 </v>
    <v>       0.00000000       0.00000000      10.58354422 </v>
   </varray>
   <i name="volume">   1185.47769178 </i>
   <varray name="rec_basis" >
    <v>       0.09448631       0.00000000       0.00000000 </v>
    <v>       0.00000000       0.09448631       0.00000000 </v>
    <v>       0.00000000       0.00000000       0.09448631 </v>
   </varray>
  </crystal>
  <varray name="positions" >
   <v>       0.50119290       0.63244750       0.49069640 </v>
   <v>       0.38786660       0.56808570       0.49335650 </v>
   <v>       0.38568395       0.43856020       0.49281565 </v>
   <v>       0.49922105       0.36977480       0.49568055 </v>
   <v>       0.61664270       0.43120310       0.49795675 </v>
   <v>       0.61727300       0.56509935       0.49515255 </v>
   <v>       0.49548495       0.73097450       0.51385840 </v>
   <v>       0.29420250       0.61717125       0.50496580 </v>
   <v>       0.29870290       0.38390770       0.50516445 </v>
   <v>       0.50246050       0.26610765       0.50418385 </v>
   <v>       0.70222980       0.37777405       0.50920025 </v>
   <v>       0.69903925       0.61889420       0.49696890 </v>
  </varray>
 </structure>
</modeling>
