<?xml version="1.0" encoding="ISO-8859-1"?>
<modeling>
 <generator>
  <i name="program" type="string">vasp </i>
  <i name="version" type="string">6.2.0  </i>
  <i name="subversion" type="string">18Jan21 (build Mar 25 2021 14:28:09) complex                          parallel </i>
  <i name="platform" type="string">LinuxGNU </i>
  <i name="date" type="string">2021 12 20 </i>
  <i name="time" type="string">09:51:32 </i>
 </generator>
 <incar>
  <i type="string" name="SYSTEM">benzene</i>
  <i type="int" name="ISTART">     0</i>
  <i type="string" name="PREC">Accurate</i>
  <i type="string" name="ALGO">Normal</i>
  <i type="int" name="NELM">   200</i>
  <i type="int" name="IBRION">    -1</i>
  <i name="EDIFF">      0.00000100</i>
  <i type="int" name="NSW">     0</i>
  <i name="ENCUT">    600.00000000</i>
  <i type="logical" name="LREAL"> F  </i>
  <i type="int" name="ISMEAR">     0</i>
  <i name="SIGMA">      0.05000000</i>
  <i type="logical" name="LWAVE"> F  </i>
  <i type="logical" name="LCHARG"> T  </i>
  <i type="string" name="GGA">PE</i>
 </incar>
 <primitive_cell>
  <structure name="primitive_cell" >
   <crystal>
    <varray name="basis" >
     <v>      10.58354422       0.00000000       0.00000000 </v>
     <v>       0.00000000      10.58354422       0.00000000 </v>
     <v>       0.00000000       0.00000000      10.58354422 </v>
    </varray>
    <i name="volume">   1185.47769178 </i>
    <varray name="rec_basis" >
     <v>       0.09448631       0.00000000       0.00000000 </v>
     <v>       0.00000000       0.09448631       0.00000000 </v>
     <v>       0.00000000       0.00000000       0.09448631 </v>
    </varray>
   </crystal>
   <varray name="positions" >
    <v>       0.49826505       0.63730900       0.50398325 </v>
    <v>       0.38398425       0.56663900       0.49064500 </v>
    <v>       0.38283210       0.43562660       0.49383895 </v>
    <v>       0.49535985       0.36712205       0.49863400 </v>
    <v>       0.61361875       0.43282990       0.50012340 </v>
    <v>       0.61793220       0.56337340       0.49896025 </v>
    <v>       0.50397635       0.73986925       0.51458500 </v>
    <v>       0.29318500       0.61348685       0.50068920 </v>
    <v>       0.29169975       0.38689555       0.49906485 </v>
    <v>       0.51591280       0.26203060       0.50799165 </v>
    <v>       0.70142930       0.37298035       0.50491095 </v>
    <v>       0.70180460       0.62183745       0.48657330 </v>
   </varray>
  </structure>
  <varray name="primitive_index" >
   <v type="int" >        1 </v>
   <v type="int" >        2 </v>
   <v type="int" >        3 </v>
   <v type="int" >        4 </v>
   <v type="int" >        5 </v>
   <v type="int" >        6 </v>
   <v type="int" >        7 </v>
   <v type="int" >        8 </v>
   <v type="int" >        9 </v>
   <v type="int" >       10 </v>
   <v type="int" >       11 </v>
   <v type="int" >       12 </v>
  </varray>
 </primitive_cell>
 <kpoints>
  <generation param="Gamma">
   <v type="int" name="divisions">       1        1        1 </v>
   <v name="usershift">      0.00000000       0.00000000       0.00000000 </v>
   <v name="genvec1">      1.00000000       0.00000000       0.00000000 </v>
   <v name="genvec2">      0.00000000       1.00000000       0.00000000 </v>
   <v name="genvec3">      0.00000000       0.00000000       1.00000000 </v>
   <v name="shift">      0.00000000       0.00000000       0.00000000 </v>
  </generation>
  <varray name="kpointlist" >
   <v>       0.00000000       0.00000000       0.00000000 </v>
  </varray>
  <varray name="weights" >
   <v>       1.00000000 </v>
  </varray>
 </kpoints>
 <parameters>
  <separator name="general" >
   <i type="string" name="SYSTEM">benzene</i>
   <i type="logical" name="LCOMPAT"> F  </i>
  </separator>
  <separator name="electronic" >
   <i type="string" name="PREC">accura</i>
   <i name="ENMAX">    600.00000000</i>
   <i name="ENAUG">    644.87300000</i>
   <i name="EDIFF">      0.00000100</i>
   <i type="int" name="IALGO">    38</i>
   <i type="int" name="IWAVPR">    10</i>
   <i type="int" name="NBANDS">    24</i>
   <i type="int" name="NBANDSLOW">    -1</i>
   <i type="int" name="NBANDSHIGH">    -1</i>
   <i name="NELECT">     30.00000000</i>
   <i type="int" name="TURBO">     0</i>
   <i type="int" name="IRESTART">     0</i>
   <i type="int" name="NREBOOT">     0</i>
   <i type="int" name="NMIN">     0</i>
   <i name="EREF">      0.00000000</i>
   <separator name="electronic smearing" >
    <i type="int" name="ISMEAR">     0</i>
    <i name="SIGMA">      0.05000000</i>
    <i name="KSPACING">      0.50000000</i>
    <i type="logical" name="KGAMMA"> T  </i>
    <i type="logical" name="KBLOWUP"> T  </i>
   </separator>
   <separator name="electronic projectors" >
    <i type="logical" name="LREAL"> F  </i>
    <v name="ROPT">      0.00000000      0.00000000</v>
    <i type="int" name="LMAXPAW">  -100</i>
    <i type="int" name="LMAXMIX">     2</i>
    <i type="logical" name="NLSPLINE"> F  </i>
   </separator>
   <separator name="electronic startup" >
    <i type="int" name="ISTART">     0</i>
    <i type="int" name="ICHARG">     2</i>
    <i type="int" name="INIWAV">     1</i>
   </separator>
   <separator name="electronic spin" >
    <i type="int" name="ISPIN">     1</i>
    <i type="logical" name="LNONCOLLINEAR"> F  </i>
    <v name="MAGMOM">      1.00000000      1.00000000      1.00000000      1.00000000      1.00000000      1.00000000      1.00000000      1.00000000      1.00000000      1.00000000      1.00000000      1.00000000</v>
    <i name="NUPDOWN">     -1.00000000</i>
    <i type="logical" name="LSORBIT"> F  </i>
    <v name="SAXIS">      0.00000000      0.00000000      1.00000000</v>
    <i type="logical" name="LSPIRAL"> F  </i>
    <v name="QSPIRAL">      0.00000000      0.00000000      0.00000000</v>
    <i type="logical" name="LZEROZ"> F  </i>
   </separator>
   <separator name="electronic exchange-correlation" >
    <i type="logical" name="LASPH"> F  </i>
    <i type="logical" name="LMETAGGA"> F  </i>
   </separator>
   <separator name="electronic convergence" >
    <i type="int" name="NELM">   200</i>
    <i type="int" name="NELMDL">    -5</i>
    <i type="int" name="NELMIN">     2</i>
    <i name="ENINI">    600.00000000</i>
    <separator name="electronic convergence detail" >
     <i type="logical" name="LDIAG"> T  </i>
     <i type="logical" name="LSUBROT"> F  </i>
     <i name="WEIMIN">      0.00000000</i>
     <i name="EBREAK">      0.00000001</i>
     <i name="DEPER">      0.30000000</i>
     <i type="int" name="NRMM">     4</i>
     <i name="TIME">      0.40000000</i>
    </separator>
   </separator>
   <separator name="electronic mixer" >
    <i name="AMIX">      0.40000000</i>
    <i name="BMIX">      1.00000000</i>
    <i name="AMIN">      0.10000000</i>
    <i name="AMIX_MAG">      1.60000000</i>
    <i name="BMIX_MAG">      1.00000000</i>
    <separator name="electronic mixer details" >
     <i type="int" name="IMIX">     4</i>
     <i type="logical" name="MIXFIRST"> F  </i>
     <i type="int" name="MAXMIX">   -45</i>
     <i name="WC">    100.00000000</i>
     <i type="int" name="INIMIX">     1</i>
     <i type="int" name="MIXPRE">     1</i>
     <i type="int" name="MREMOVE">     5</i>
    </separator>
   </separator>
   <separator name="electronic dipolcorrection" >
    <i type="logical" name="LDIPOL"> F  </i>
    <i type="logical" name="LMONO"> F  </i>
    <i type="int" name="IDIPOL">     0</i>
    <i name="EPSILON">      1.00000000</i>
    <v name="DIPOL">   -100.00000000   -100.00000000   -100.00000000</v>
    <i name="EFIELD">      0.00000000</i>
   </separator>
  </separator>
  <separator name="grids" >
   <i type="int" name="NGX">    90</i>
   <i type="int" name="NGY">    90</i>
   <i type="int" name="NGZ">    90</i>
   <i type="int" name="NGXF">   180</i>
   <i type="int" name="NGYF">   180</i>
   <i type="int" name="NGZF">   180</i>
   <i type="logical" name="ADDGRID"> F  </i>
  </separator>
  <separator name="ionic" >
   <i type="int" name="NSW">     0</i>
   <i type="int" name="IBRION">    -1</i>
   <i type="int" name="MDALGO">     0</i>
   <i type="int" name="ISIF">     2</i>
   <i name="PSTRESS">      0.00000000</i>
   <i name="EDIFFG">      0.00001000</i>
   <i type="int" name="NFREE">     0</i>
   <i name="POTIM">      0.50000000</i>
   <i name="SMASS">     -3.00000000</i>
   <i name="SCALEE">      1.00000000</i>
  </separator>
  <separator name="ionic md" >
   <i name="TEBEG">      0.00010000</i>
   <i name="TEEND">      0.00010000</i>
   <i type="int" name="NBLOCK">     1</i>
   <i type="int" name="KBLOCK">     1</i>
   <i type="int" name="NPACO">   256</i>
   <i name="APACO">     16.00000000</i>
  </separator>
  <separator name="symmetry" >
   <i type="int" name="ISYM">     2</i>
   <i name="SYMPREC">      0.00001000</i>
  </separator>
  <separator name="dos" >
   <i type="int" name="LORBIT">     0</i>
   <v name="RWIGS">     -1.00000000     -1.00000000</v>
   <i type="int" name="NEDOS">   301</i>
   <i name="EMIN">     10.00000000</i>
   <i name="EMAX">    -10.00000000</i>
   <i name="EFERMI">      0.00000000</i>
  </separator>
  <separator name="writing" >
   <i type="int" name="NWRITE">     2</i>
   <i type="logical" name="LWAVE"> F  </i>
   <i type="logical" name="LDOWNSAMPLE"> F  </i>
   <i type="logical" name="LCHARG"> T  </i>
   <i type="logical" name="LPARD"> F  </i>
   <i type="logical" name="LVTOT"> F  </i>
   <i type="logical" name="LVHAR"> F  </i>
   <i type="logical" name="LELF"> F  </i>
   <i type="logical" name="LOPTICS"> F  </i>
   <v name="STM">      0.00000000      0.00000000      0.00000000      0.00000000      0.00000000      0.00000000      0.00000000</v>
  </separator>
  <separator name="performance" >
   <i type="int" name="NPAR">     4</i>
   <i type="int" name="NSIM">     4</i>
   <i type="int" name="NBLK">    -1</i>
   <i type="logical" name="LPLANE"> T  </i>
   <i type="logical" name="LSCALAPACK"> T  </i>
   <i type="logical" name="LSCAAWARE"> F  </i>
   <i type="logical" name="LSCALU"> F  </i>
   <i type="logical" name="LASYNC"> F  </i>
   <i type="logical" name="LORBITALREAL"> F  </i>
  </separator>
  <separator name="miscellaneous" >
   <i type="int" name="IDIOT">     3</i>
   <i type="int" name="PHON_NSTRUCT">    -1</i>
   <i type="logical" name="LMUSIC"> F  </i>
   <v name="POMASS">     12.01100000      1.00000000</v>
   <v name="DARWINR">      0.00000000      0.00000000</v>
   <v name="DARWINV">      1.00000000      1.00000000</v>
   <i type="logical" name="LCORR"> T  </i>
  </separator>
  <i type="logical" name="GGA_COMPAT"> T  </i>
  <i type="logical" name="LBERRY"> F  </i>
  <i type="int" name="ICORELEVEL">     0</i>
  <i type="logical" name="LDAU"> F  </i>
  <i type="int" name="I_CONSTRAINED_M">     0</i>
  <separator name="electronic exchange-correlation" >
   <i type="string" name="GGA">PE</i>
   <i type="int" name="VOSKOWN">     0</i>
   <i type="logical" name="LHFCALC"> F  </i>
   <i type="string" name="PRECFOCK"></i>
   <i type="logical" name="LSYMGRAD"> F  </i>
   <i type="logical" name="LHFONE"> F  </i>
   <i type="logical" name="LRHFCALC"> F  </i>
   <i type="logical" name="LTHOMAS"> F  </i>
   <i type="logical" name="LMODELHF"> F  </i>
   <i type="logical" name="LFOCKACE"> F  </i>
   <i name="ENCUT4O">     -1.00000000</i>
   <i type="int" name="EXXOEP">     0</i>
   <i type="int" name="FOURORBIT">     0</i>
   <i name="AEXX">      0.00000000</i>
   <i name="HFALPHA">      0.00000000</i>
   <i name="MCALPHA">      0.00000000</i>
   <i name="ALDAX">      1.00000000</i>
   <i name="AGGAX">      1.00000000</i>
   <i name="ALDAC">      1.00000000</i>
   <i name="AGGAC">      1.00000000</i>
   <i type="int" name="NKREDX">     1</i>
   <i type="int" name="NKREDY">     1</i>
   <i type="int" name="NKREDZ">     1</i>
   <i type="logical" name="SHIFTRED"> F  </i>
   <i type="logical" name="ODDONLY"> F  </i>
   <i type="logical" name="EVENONLY"> F  </i>
   <i type="int" name="LMAXFOCK">     0</i>
   <i type="int" name="NMAXFOCKAE">     0</i>
   <i type="logical" name="LFOCKAEDFT"> F  </i>
   <i name="HFSCREEN">      0.00000000</i>
   <i name="HFSCREENC">      0.00000000</i>
   <i type="int" name="NBANDSGWLOW">     0</i>
  </separator>
  <separator name="vdW DFT" >
   <i type="logical" name="LUSE_VDW"> F  </i>
   <i name="Zab_VDW">     -0.84910000</i>
   <i name="PARAM1">      0.12340000</i>
   <i name="PARAM2">      1.00000000</i>
   <i name="PARAM3">      0.00000000</i>
  </separator>
  <separator name="model GW" >
   <i type="int" name="MODEL_GW">     0</i>
   <i name="MODEL_EPS0">     59.27388459</i>
   <i name="MODEL_ALPHA">      1.00000000</i>
  </separator>
  <separator name="linear response parameters" >
   <i type="logical" name="LEPSILON"> F  </i>
   <i type="logical" name="LRPA"> F  </i>
   <i type="logical" name="LNABLA"> F  </i>
   <i type="logical" name="LVEL"> F  </i>
   <i type="int" name="KINTER">     0</i>
   <i name="CSHIFT">      0.10000000</i>
   <i name="OMEGAMAX">     -1.00000000</i>
   <i name="DEG_THRESHOLD">      0.00200000</i>
   <i name="RTIME">     -0.10000000</i>
   <i name="WPLASMAI">      0.00000000</i>
   <v name="DFIELD">      0.00000000      0.00000000      0.00000000</v>
   <v name="WPLASMA">      0.00000000      0.00000000      0.00000000      0.00000000      0.00000000      0.00000000      0.00000000      0.00000000      0.00000000</v>
  </separator>
  <separator name="orbital magnetization" >
   <i type="logical" name="NUCIND"> F  </i>
   <v name="MAGPOS">      0.00000000      0.00000000      0.00000000</v>
   <i type="logical" name="LNICSALL"> T  </i>
   <i type="logical" name="ORBITALMAG"> F  </i>
   <i type="logical" name="LMAGBLOCH"> F  </i>
   <i type="logical" name="LCHIMAG"> F  </i>
   <i type="logical" name="LGAUGE"> T  </i>
   <i type="int" name="MAGATOM">     0</i>
   <v name="MAGDIPOL">      0.00000000      0.00000000      0.00000000</v>
   <v name="AVECCONST">      0.00000000      0.00000000      0.00000000</v>
  </separator>
  <separator name="response functions" >
   <i type="logical" name="LFINITE_TEMPERATURE"> F  </i>
   <i type="logical" name="LADDER"> F  </i>
   <i type="logical" name="LRPAFORCE"> F  </i>
   <i type="logical" name="LFXC"> F  </i>
   <i type="logical" name="LHARTREE"> T  </i>
   <i type="int" name="IBSE">     0</i>
   <v type="int" name="KPOINT">    -1     0     0     0</v>
   <i type="logical" name="LTCTC"> F  </i>
   <i type="logical" name="LTCTE"> F  </i>
   <i type="logical" name="LTETE"> F  </i>
   <i type="logical" name="LTRIPLET"> F  </i>
   <i type="logical" name="LFXCEPS"> F  </i>
   <i type="logical" name="LFXHEG"> F  </i>
   <i type="int" name="NATURALO">     2</i>
   <i type="logical" name="LHOLEGF"> F  </i>
   <i type="logical" name="L2ORDER"> F  </i>
   <i type="logical" name="LDMP1"> F  </i>
   <i type="logical" name="LMP2LT"> F  </i>
   <i type="logical" name="LSMP2LT"> F  </i>
   <i type="logical" name="LGWLF"> F  </i>
   <i name="ENCUTGW">     -2.00000000</i>
   <i name="ENCUTGWSOFT">     -2.00000000</i>
   <i name="ENCUTLF">     -1.00000000</i>
   <i type="logical" name="LESF_SPLINES"> F  </i>
   <i type="int" name="LMAXMP2">    -1</i>
   <i name="SCISSOR">      0.00000000</i>
   <i type="int" name="NOMEGA">     0</i>
   <i type="int" name="NOMEGAR">     0</i>
   <i type="int" name="NBANDSGW">    -1</i>
   <i type="int" name="NBANDSO">    -1</i>
   <i type="int" name="NBANDSV">    -1</i>
   <i type="int" name="NELM">   200</i>
   <i type="int" name="NELMHF">     1</i>
   <i type="int" name="DIM">     3</i>
   <i type="int" name="IESPILON">     4</i>
   <i type="int" name="ANTIRES">     0</i>
   <i name="OMEGAMAX">    -30.00000000</i>
   <i name="OMEGAMIN">    -30.00000000</i>
   <i name="OMEGATL">   -200.00000000</i>
   <i type="int" name="OMEGAGRID">     0</i>
   <i name="CSHIFT">     -0.10000000</i>
   <i type="logical" name="LSELFENERGY"> F  </i>
   <i type="logical" name="LSPECTRAL"> F  </i>
   <i type="logical" name="LSPECTRALGW"> F  </i>
   <i type="logical" name="LSINGLES"> F  </i>
   <i type="logical" name="LFERMIGW"> F  </i>
   <i type="logical" name="ODDONLYGW"> F  </i>
   <i type="logical" name="EVENONLYGW"> F  </i>
   <i type="int" name="NKREDLFX">     1</i>
   <i type="int" name="NKREDLFY">     1</i>
   <i type="int" name="NKREDLFZ">     1</i>
   <i type="int" name="MAXMEM">  2800</i>
   <i type="int" name="TELESCOPE">     0</i>
   <i type="int" name="NTAUPAR">    -1</i>
   <i type="int" name="NOMEGAPAR">    -1</i>
   <i name="DAMP_NEWTON">      0.80000001</i>
   <i name="LAMBDA">      1.00000000</i>
  </separator>
  <separator name="External order field" >
   <i name="OFIELD_KAPPA">      0.00000000</i>
   <v name="OFIELD_K">      0.00000000      0.00000000      0.00000000</v>
   <i name="OFIELD_Q6_NEAR">      0.00000000</i>
   <i name="OFIELD_Q6_FAR">      0.00000000</i>
   <i name="OFIELD_A">      0.00000000</i>
  </separator>
 </parameters>
 <atominfo>
  <atoms>      12 </atoms>
  <types>       2 </types>
  <array name="atoms" >
   <dimension dim="1">ion</dimension>
   <field type="string">element</field>
   <field type="int">atomtype</field>
   <set>
    <rc><c>C </c><c>   1</c></rc>
    <rc><c>C </c><c>   1</c></rc>
    <rc><c>C </c><c>   1</c></rc>
    <rc><c>C </c><c>   1</c></rc>
    <rc><c>C </c><c>   1</c></rc>
    <rc><c>C </c><c>   1</c></rc>
    <rc><c>H </c><c>   2</c></rc>
    <rc><c>H </c><c>   2</c></rc>
    <rc><c>H </c><c>   2</c></rc>
    <rc><c>H </c><c>   2</c></rc>
    <rc><c>H </c><c>   2</c></rc>
    <rc><c>H </c><c>   2</c></rc>
   </set>
  </array>
  <array name="atomtypes" >
   <dimension dim="1">type</dimension>
   <field type="int">atomspertype</field>
   <field type="string">element</field>
   <field>mass</field>
   <field>valence</field>
   <field type="string">pseudopotential</field>
   <set>
    <rc><c>   6</c><c>C </c><c>     12.01100000</c><c>      4.00000000</c><c>  PAW_PBE C 08Apr2002                   </c></rc>
    <rc><c>   6</c><c>H </c><c>      1.00000000</c><c>      1.00000000</c><c>  PAW_PBE H 15Jun2001                   </c></rc>
   </set>
  </array>
 </atominfo>
 <structure name="initialpos" >
  <crystal>
   <varray name="basis" >
    <v>      10.58354422       0.00000000       0.00000000 </v>
    <v>       0.00000000      10.58354422       0.00000000 </v>
    <v>       0.00000000       0.00000000      10.58354422 </v>
   </varray>
   <i name="volume">   1185.47769178 </i>
   <varray name="rec_basis" >
    <v>       0.09448631       0.00000000       0.00000000 </v>
    <v>       0.00000000       0.09448631       0.00000000 </v>
    <v>       0.00000000       0.00000000       0.09448631 </v>
   </varray>
  </crystal>
  <varray name="positions" >
   <v>       0.49826505       0.63730900       0.50398325 </v>
   <v>       0.38398425       0.56663900       0.49064500 </v>
   <v>       0.38283210       0.43562660       0.49383895 </v>
   <v>       0.49535985       0.36712205       0.49863400 </v>
   <v>       0.61361875       0.43282990       0.50012340 </v>
   <v>       0.61793220       0.56337340       0.49896025 </v>
   <v>       0.50397635       0.73986925       0.51458500 </v>
   <v>       0.29318500       0.61348685       0.50068920 </v>
   <v>       0.29169975       0.38689555       0.49906485 </v>
   <v>       0.51591280       0.26203060       0.50799165 </v>
   <v>       0.70142930       0.37298035       0.50491095 </v>
   <v>       0.70180460       0.62183745       0.48657330 </v>
  </varray>
 </structure>
 <calculation>
  <scstep>
   <time name="dav">    0.21    0.21</time>
   <time name="total">    0.47    0.47</time>
   <energy>
    <i name="alphaZ">      3.48814018 </i>
    <i name="ewald">   1093.52982335 </i>
    <i name="hartreedc">  -1736.11291330 </i>
    <i name="XCdc">     90.82305563 </i>
    <i name="pawpsdc">    663.93644290 </i>
    <i name="pawaedc">   -667.40614445 </i>
    <i name="eentropy">     -0.00000000 </i>
    <i name="bandstr">   -194.51946498 </i>
    <i name="atom">    957.82965714 </i>
    <i name="e_fr_energy">    211.56859647 </i>
    <i name="e_wo_entrp">    211.56859647 </i>
    <i name="e_0_energy">    211.56859647 </i>
   </energy>
  </scstep>
  <scstep>
   <time name="dav">    0.25    0.25</time>
   <time name="total">    0.25    0.25</time>
   <energy>
    <i name="e_fr_energy">     -3.31823899 </i>
    <i name="e_wo_entrp">     -3.31823899 </i>
    <i name="e_0_energy">     -3.31823899 </i>
   </energy>
  </scstep>
  <scstep>
   <time name="dav">    0.21    0.21</time>
   <time name="total">    0.21    0.21</time>
   <energy>
    <i name="e_fr_energy">    -77.10836429 </i>
    <i name="e_wo_entrp">    -77.10836429 </i>
    <i name="e_0_energy">    -77.10836429 </i>
   </energy>
  </scstep>
  <scstep>
   <time name="dav">    0.19    0.19</time>
   <time name="total">    0.19    0.19</time>
   <energy>
    <i name="e_fr_energy">    -82.93408661 </i>
    <i name="e_wo_entrp">    -82.93408661 </i>
    <i name="e_0_energy">    -82.93408661 </i>
   </energy>
  </scstep>
  <scstep>
   <time name="dav">    0.25    0.25</time>
   <time name="total">    0.29    0.29</time>
   <energy>
    <i name="e_fr_energy">    -83.05724332 </i>
    <i name="e_wo_entrp">    -83.05724332 </i>
    <i name="e_0_energy">    -83.05724332 </i>
   </energy>
  </scstep>
  <scstep>
   <time name="dav">    0.22    0.22</time>
   <time name="total">    0.52    0.52</time>
   <energy>
    <i name="e_fr_energy">    -77.30653852 </i>
    <i name="e_wo_entrp">    -77.30653852 </i>
    <i name="e_0_energy">    -77.30653852 </i>
   </energy>
  </scstep>
  <scstep>
   <time name="dav">    0.25    0.25</time>
   <time name="total">    0.54    0.55</time>
   <energy>
    <i name="e_fr_energy">    -75.65779547 </i>
    <i name="e_wo_entrp">    -75.65779547 </i>
    <i name="e_0_energy">    -75.65779547 </i>
   </energy>
  </scstep>
  <scstep>
   <time name="dav">    0.23    0.23</time>
   <time name="total">    0.52    0.53</time>
   <energy>
    <i name="e_fr_energy">    -75.49090286 </i>
    <i name="e_wo_entrp">    -75.49090286 </i>
    <i name="e_0_energy">    -75.49090286 </i>
   </energy>
  </scstep>
  <scstep>
   <time name="dav">    0.23    0.23</time>
   <time name="total">    0.52    0.53</time>
   <energy>
    <i name="e_fr_energy">    -75.46797820 </i>
    <i name="e_wo_entrp">    -75.46797820 </i>
    <i name="e_0_energy">    -75.46797820 </i>
   </energy>
  </scstep>
  <scstep>
   <time name="dav">    0.23    0.23</time>
   <time name="total">    0.52    0.52</time>
   <energy>
    <i name="e_fr_energy">    -75.46239000 </i>
    <i name="e_wo_entrp">    -75.46239000 </i>
    <i name="e_0_energy">    -75.46239000 </i>
   </energy>
  </scstep>
  <scstep>
   <time name="dav">    0.20    0.20</time>
   <time name="total">    0.49    0.49</time>
   <energy>
    <i name="e_fr_energy">    -75.45646931 </i>
    <i name="e_wo_entrp">    -75.45646931 </i>
    <i name="e_0_energy">    -75.45646931 </i>
   </energy>
  </scstep>
  <scstep>
   <time name="dav">    0.21    0.21</time>
   <time name="total">    0.49    0.49</time>
   <energy>
    <i name="e_fr_energy">    -75.46412382 </i>
    <i name="e_wo_entrp">    -75.46412382 </i>
    <i name="e_0_energy">    -75.46412382 </i>
   </energy>
  </scstep>
  <scstep>
   <time name="dav">    0.21    0.21</time>
   <time name="total">    0.48    0.49</time>
   <energy>
    <i name="e_fr_energy">    -75.47074919 </i>
    <i name="e_wo_entrp">    -75.47074919 </i>
    <i name="e_0_energy">    -75.47074919 </i>
   </energy>
  </scstep>
  <scstep>
   <time name="dav">    0.21    0.21</time>
   <time name="total">    0.48    0.49</time>
   <energy>
    <i name="e_fr_energy">    -75.47897792 </i>
    <i name="e_wo_entrp">    -75.47897792 </i>
    <i name="e_0_energy">    -75.47897792 </i>
   </energy>
  </scstep>
  <scstep>
   <time name="dav">    0.21    0.21</time>
   <time name="total">    0.48    0.48</time>
   <energy>
    <i name="e_fr_energy">    -75.48095472 </i>
    <i name="e_wo_entrp">    -75.48095472 </i>
    <i name="e_0_energy">    -75.48095472 </i>
   </energy>
  </scstep>
  <scstep>
   <time name="dav">    0.21    0.21</time>
   <time name="total">    0.48    0.49</time>
   <energy>
    <i name="e_fr_energy">    -75.48205443 </i>
    <i name="e_wo_entrp">    -75.48205443 </i>
    <i name="e_0_energy">    -75.48205443 </i>
   </energy>
  </scstep>
  <scstep>
   <time name="dav">    0.23    0.23</time>
   <time name="total">    0.51    0.51</time>
   <energy>
    <i name="e_fr_energy">    -75.48231067 </i>
    <i name="e_wo_entrp">    -75.48231067 </i>
    <i name="e_0_energy">    -75.48231067 </i>
   </energy>
  </scstep>
  <scstep>
   <time name="dav">    0.22    0.22</time>
   <time name="total">    0.50    0.51</time>
   <energy>
    <i name="e_fr_energy">    -75.48240301 </i>
    <i name="e_wo_entrp">    -75.48240301 </i>
    <i name="e_0_energy">    -75.48240301 </i>
   </energy>
  </scstep>
  <scstep>
   <time name="dav">    0.19    0.19</time>
   <time name="total">    0.47    0.47</time>
   <energy>
    <i name="e_fr_energy">    -75.48242616 </i>
    <i name="e_wo_entrp">    -75.48242616 </i>
    <i name="e_0_energy">    -75.48242616 </i>
   </energy>
  </scstep>
  <scstep>
   <time name="dav">    0.21    0.21</time>
   <time name="total">    0.50    0.50</time>
   <energy>
    <i name="e_fr_energy">    -75.48243439 </i>
    <i name="e_wo_entrp">    -75.48243439 </i>
    <i name="e_0_energy">    -75.48243439 </i>
   </energy>
  </scstep>
  <scstep>
   <time name="dav">    0.19    0.19</time>
   <time name="total">    0.47    0.48</time>
   <energy>
    <i name="e_fr_energy">    -75.48243729 </i>
    <i name="e_wo_entrp">    -75.48243729 </i>
    <i name="e_0_energy">    -75.48243729 </i>
   </energy>
  </scstep>
  <scstep>
   <time name="dav">    0.23    0.23</time>
   <time name="total">    0.52    0.52</time>
   <energy>
    <i name="e_fr_energy">    -75.48243841 </i>
    <i name="e_wo_entrp">    -75.48243841 </i>
    <i name="e_0_energy">    -75.48243841 </i>
   </energy>
  </scstep>
  <scstep>
   <time name="dav">    0.14    0.14</time>
   <time name="total">    0.40    0.40</time>
   <energy>
    <i name="alphaZ">      3.48814018 </i>
    <i name="ewald">   1093.52982335 </i>
    <i name="hartreedc">  -1876.54257782 </i>
    <i name="XCdc">     97.44956434 </i>
    <i name="pawpsdc">   2369.24967895 </i>
    <i name="pawaedc">  -2373.44738886 </i>
    <i name="eentropy">     -0.00000000 </i>
    <i name="bandstr">   -347.03933585 </i>
    <i name="atom">    957.82965714 </i>
    <i name="e_fr_energy">    -75.48243857 </i>
    <i name="e_wo_entrp">    -75.48243857 </i>
    <i name="e_0_energy">    -75.48243857 </i>
   </energy>
  </scstep>
  <structure>
   <crystal>
    <varray name="basis" >
     <v>      10.58354422       0.00000000       0.00000000 </v>
     <v>       0.00000000      10.58354422       0.00000000 </v>
     <v>       0.00000000       0.00000000      10.58354422 </v>
    </varray>
    <i name="volume">   1185.47769178 </i>
    <varray name="rec_basis" >
     <v>       0.09448631       0.00000000       0.00000000 </v>
     <v>       0.00000000       0.09448631       0.00000000 </v>
     <v>       0.00000000       0.00000000       0.09448631 </v>
    </varray>
   </crystal>
   <varray name="positions" >
    <v>       0.49826505       0.63730900       0.50398325 </v>
    <v>       0.38398425       0.56663900       0.49064500 </v>
    <v>       0.38283210       0.43562660       0.49383895 </v>
    <v>       0.49535985       0.36712205       0.49863400 </v>
    <v>       0.61361875       0.43282990       0.50012340 </v>
    <v>       0.61793220       0.56337340       0.49896025 </v>
    <v>       0.50397635       0.73986925       0.51458500 </v>
    <v>       0.29318500       0.61348685       0.50068920 </v>
    <v>       0.29169975       0.38689555       0.49906485 </v>
    <v>       0.51591280       0.26203060       0.50799165 </v>
    <v>       0.70142930       0.37298035       0.50491095 </v>
    <v>       0.70180460       0.62183745       0.48657330 </v>
   </varray>
  </structure>
  <varray name="forces" >
   <v>       1.14568100      -2.75614457      -0.74604807 </v>
   <v>       1.02320193       1.54298134       1.19855500 </v>
   <v>       0.11690776      -1.25050176      -0.02960561 </v>
   <v>       2.05798439      -0.46861385       0.38974947 </v>
   <v>      -0.03114340      -0.84791945      -0.09367430 </v>
   <v>      -2.37718899       2.12366600      -0.07681442 </v>
   <v>      -0.22760500      -0.13585742      -0.19109335 </v>
   <v>      -0.12237176       0.27367912      -0.25187017 </v>
   <v>       0.11060474       0.01155418      -0.18408892 </v>
   <v>      -1.32863188       1.11027537      -0.21748062 </v>
   <v>      -0.72361043       0.76198011      -0.17917282 </v>
   <v>       0.35617164      -0.36509908       0.38154380 </v>
  </varray>
  <varray name="stress" >
   <v>      -7.71086284       2.37861423      -0.40898507 </v>
   <v>       2.37861423      -5.27752342      -0.05281820 </v>
   <v>      -0.40898507      -0.05281820      -0.52857219 </v>
  </varray>
  <energy>
   <i name="e_fr_energy">    -75.48243857 </i>
   <i name="e_wo_entrp">    -75.48243857 </i>
   <i name="e_0_energy">    -75.48243857 </i>
  </energy>
  <time name="totalsc">   15.42   15.62</time>
  <eigenvalues>
   <array>
    <dimension dim="1">band</dimension>
    <dimension dim="2">kpoint</dimension>
    <dimension dim="3">spin</dimension>
    <field>eigene</field>
    <field>occ</field>
    <set>
     <set comment="spin 1">
      <set comment="kpoint 1">
       <r>  -20.5621    1.0000 </r>
       <r>  -18.0270    1.0000 </r>
       <r>  -17.7371    1.0000 </r>
       <r>  -14.4397    1.0000 </r>
       <r>  -14.2117    1.0000 </r>
       <r>  -12.2926    1.0000 </r>
       <r>  -10.8462    1.0000 </r>
       <r>  -10.3282    1.0000 </r>
       <r>   -9.7675    1.0000 </r>
       <r>   -9.6352    1.0000 </r>
       <r>   -8.5056    1.0000 </r>
       <r>   -7.9450    1.0000 </r>
       <r>   -7.5145    1.0000 </r>
       <r>   -5.9855    1.0000 </r>
       <r>   -5.7217    1.0000 </r>
       <r>   -1.1609    0.0000 </r>
       <r>   -0.8259    0.0000 </r>
       <r>   -0.4625    0.0000 </r>
       <r>    0.6641    0.0000 </r>
       <r>    0.7910    0.0000 </r>
       <r>    0.8601    0.0000 </r>
       <r>    0.8948    0.0000 </r>
       <r>    0.9910    0.0000 </r>
       <r>    1.4455    0.0000 </r>
      </set>
     </set>
    </set>
   </array>
  </eigenvalues>
  <separator name="orbital magnetization" >
   <v name="MAGDIPOLOUT">      0.00000000      0.00000000      0.00000000</v>
  </separator>
  <dos>
   <i name="efermi">     -5.43782878 </i>
   <total>
    <array>
     <dimension dim="1">gridpoints</dimension>
     <dimension dim="2">spin</dimension>
     <field>energy</field>
     <field>total</field>
     <field>integrated</field>
     <set>
      <set comment="spin 1">
       <r>   -21.6625     0.0000     0.0000 </r>
       <r>   -21.5818     0.0000     0.0000 </r>
       <r>   -21.5011     0.0000     0.0000 </r>
       <r>   -21.4204     0.0000     0.0000 </r>
       <r>   -21.3397     0.0000     0.0000 </r>
       <r>   -21.2590     0.0000     0.0000 </r>
       <r>   -21.1783     0.0000     0.0000 </r>
       <r>   -21.0976     0.0000     0.0000 </r>
       <r>   -21.0169     0.0000     0.0000 </r>
       <r>   -20.9362     0.0000     0.0000 </r>
       <r>   -20.8555     0.0000     0.0000 </r>
       <r>   -20.7748     0.0000     0.0000 </r>
       <r>   -20.6941     0.0023     0.0002 </r>
       <r>   -20.6134     1.8117     0.1464 </r>
       <r>   -20.5327    17.9325     1.5934 </r>
       <r>   -20.4521     5.0153     1.9981 </r>
       <r>   -20.3714     0.0230     2.0000 </r>
       <r>   -20.2907     0.0000     2.0000 </r>
       <r>   -20.2100     0.0000     2.0000 </r>
       <r>   -20.1293     0.0000     2.0000 </r>
       <r>   -20.0486     0.0000     2.0000 </r>
       <r>   -19.9679     0.0000     2.0000 </r>
       <r>   -19.8872     0.0000     2.0000 </r>
       <r>   -19.8065     0.0000     2.0000 </r>
       <r>   -19.7258     0.0000     2.0000 </r>
       <r>   -19.6451     0.0000     2.0000 </r>
       <r>   -19.5644     0.0000     2.0000 </r>
       <r>   -19.4837     0.0000     2.0000 </r>
       <r>   -19.4030     0.0000     2.0000 </r>
       <r>   -19.3223     0.0000     2.0000 </r>
       <r>   -19.2416     0.0000     2.0000 </r>
       <r>   -19.1609     0.0000     2.0000 </r>
       <r>   -19.0802     0.0000     2.0000 </r>
       <r>   -18.9995     0.0000     2.0000 </r>
       <r>   -18.9189     0.0000     2.0000 </r>
       <r>   -18.8382     0.0000     2.0000 </r>
       <r>   -18.7575     0.0000     2.0000 </r>
       <r>   -18.6768     0.0000     2.0000 </r>
       <r>   -18.5961     0.0000     2.0000 </r>
       <r>   -18.5154     0.0000     2.0000 </r>
       <r>   -18.4347     0.0000     2.0000 </r>
       <r>   -18.3540     0.0000     2.0000 </r>
       <r>   -18.2733     0.0000     2.0000 </r>
       <r>   -18.1926     0.0000     2.0000 </r>
       <r>   -18.1119     0.2019     2.0163 </r>
       <r>   -18.0312    11.0077     2.9046 </r>
       <r>   -17.9505    13.1962     3.9694 </r>
       <r>   -17.8698     0.3810     4.0002 </r>
       <r>   -17.7891     1.7504     4.1414 </r>
       <r>   -17.7084    17.8662     5.5831 </r>
       <r>   -17.6277     5.1417     5.9980 </r>
       <r>   -17.5470     0.0245     6.0000 </r>
       <r>   -17.4664     0.0000     6.0000 </r>
       <r>   -17.3857     0.0000     6.0000 </r>
       <r>   -17.3050     0.0000     6.0000 </r>
       <r>   -17.2243     0.0000     6.0000 </r>
       <r>   -17.1436     0.0000     6.0000 </r>
       <r>   -17.0629     0.0000     6.0000 </r>
       <r>   -16.9822     0.0000     6.0000 </r>
       <r>   -16.9015     0.0000     6.0000 </r>
       <r>   -16.8208     0.0000     6.0000 </r>
       <r>   -16.7401     0.0000     6.0000 </r>
       <r>   -16.6594     0.0000     6.0000 </r>
       <r>   -16.5787     0.0000     6.0000 </r>
       <r>   -16.4980     0.0000     6.0000 </r>
       <r>   -16.4173     0.0000     6.0000 </r>
       <r>   -16.3366     0.0000     6.0000 </r>
       <r>   -16.2559     0.0000     6.0000 </r>
       <r>   -16.1752     0.0000     6.0000 </r>
       <r>   -16.0945     0.0000     6.0000 </r>
       <r>   -16.0139     0.0000     6.0000 </r>
       <r>   -15.9332     0.0000     6.0000 </r>
       <r>   -15.8525     0.0000     6.0000 </r>
       <r>   -15.7718     0.0000     6.0000 </r>
       <r>   -15.6911     0.0000     6.0000 </r>
       <r>   -15.6104     0.0000     6.0000 </r>
       <r>   -15.5297     0.0000     6.0000 </r>
       <r>   -15.4490     0.0000     6.0000 </r>
       <r>   -15.3683     0.0000     6.0000 </r>
       <r>   -15.2876     0.0000     6.0000 </r>
       <r>   -15.2069     0.0000     6.0000 </r>
       <r>   -15.1262     0.0000     6.0000 </r>
       <r>   -15.0455     0.0000     6.0000 </r>
       <r>   -14.9648     0.0000     6.0000 </r>
       <r>   -14.8841     0.0000     6.0000 </r>
       <r>   -14.8034     0.0000     6.0000 </r>
       <r>   -14.7227     0.0000     6.0000 </r>
       <r>   -14.6420     0.0000     6.0000 </r>
       <r>   -14.5614     0.0072     6.0006 </r>
       <r>   -14.4807     3.0492     6.2466 </r>
       <r>   -14.4000    18.4929     7.7389 </r>
       <r>   -14.3193     3.2563     8.0017 </r>
       <r>   -14.2386     5.5167     8.4469 </r>
       <r>   -14.1579    17.6600     9.8719 </r>
       <r>   -14.0772     1.5855     9.9999 </r>
       <r>   -13.9965     0.0018    10.0000 </r>
       <r>   -13.9158     0.0000    10.0000 </r>
       <r>   -13.8351     0.0000    10.0000 </r>
       <r>   -13.7544     0.0000    10.0000 </r>
       <r>   -13.6737     0.0000    10.0000 </r>
       <r>   -13.5930     0.0000    10.0000 </r>
       <r>   -13.5123     0.0000    10.0000 </r>
       <r>   -13.4316     0.0000    10.0000 </r>
       <r>   -13.3509     0.0000    10.0000 </r>
       <r>   -13.2702     0.0000    10.0000 </r>
       <r>   -13.1895     0.0000    10.0000 </r>
       <r>   -13.1089     0.0000    10.0000 </r>
       <r>   -13.0282     0.0000    10.0000 </r>
       <r>   -12.9475     0.0000    10.0000 </r>
       <r>   -12.8668     0.0000    10.0000 </r>
       <r>   -12.7861     0.0000    10.0000 </r>
       <r>   -12.7054     0.0000    10.0000 </r>
       <r>   -12.6247     0.0000    10.0000 </r>
       <r>   -12.5440     0.0000    10.0000 </r>
       <r>   -12.4633     0.0000    10.0000 </r>
       <r>   -12.3826     0.1354    10.0109 </r>
       <r>   -12.3019     9.6895    10.7928 </r>
       <r>   -12.2212    14.4219    11.9566 </r>
       <r>   -12.1405     0.5378    12.0000 </r>
       <r>   -12.0598     0.0002    12.0000 </r>
       <r>   -11.9791     0.0000    12.0000 </r>
       <r>   -11.8984     0.0000    12.0000 </r>
       <r>   -11.8177     0.0000    12.0000 </r>
       <r>   -11.7370     0.0000    12.0000 </r>
       <r>   -11.6563     0.0000    12.0000 </r>
       <r>   -11.5757     0.0000    12.0000 </r>
       <r>   -11.4950     0.0000    12.0000 </r>
       <r>   -11.4143     0.0000    12.0000 </r>
       <r>   -11.3336     0.0000    12.0000 </r>
       <r>   -11.2529     0.0000    12.0000 </r>
       <r>   -11.1722     0.0000    12.0000 </r>
       <r>   -11.0915     0.0000    12.0000 </r>
       <r>   -11.0108     0.0000    12.0000 </r>
       <r>   -10.9301     0.2186    12.0176 </r>
       <r>   -10.8494    11.2795    12.9278 </r>
       <r>   -10.7687    12.9348    13.9716 </r>
       <r>   -10.6880     0.3517    14.0000 </r>
       <r>   -10.6073     0.0001    14.0000 </r>
       <r>   -10.5266     0.0000    14.0000 </r>
       <r>   -10.4459     0.0108    14.0009 </r>
       <r>   -10.3652     3.6423    14.2948 </r>
       <r>   -10.2845    18.4433    15.7831 </r>
       <r>   -10.2038     2.6830    15.9996 </r>
       <r>   -10.1232     0.0054    16.0000 </r>
       <r>   -10.0425     0.0000    16.0000 </r>
       <r>    -9.9618     0.0000    16.0000 </r>
       <r>    -9.8811     0.0162    16.0013 </r>
       <r>    -9.8004     4.3430    16.3518 </r>
       <r>    -9.7197    18.4464    17.8403 </r>
       <r>    -9.6390    13.3208    18.9152 </r>
       <r>    -9.5583    13.0772    19.9705 </r>
       <r>    -9.4776     0.3659    20.0000 </r>
       <r>    -9.3969     0.0001    20.0000 </r>
       <r>    -9.3162     0.0000    20.0000 </r>
       <r>    -9.2355     0.0000    20.0000 </r>
       <r>    -9.1548     0.0000    20.0000 </r>
       <r>    -9.0741     0.0000    20.0000 </r>
       <r>    -8.9934     0.0000    20.0000 </r>
       <r>    -8.9127     0.0000    20.0000 </r>
       <r>    -8.8320     0.0000    20.0000 </r>
       <r>    -8.7513     0.0000    20.0000 </r>
       <r>    -8.6707     0.0000    20.0000 </r>
       <r>    -8.5900     0.2115    20.0171 </r>
       <r>    -8.5093    11.1659    20.9181 </r>
       <r>    -8.4286    13.0444    21.9707 </r>
       <r>    -8.3479     0.3629    22.0000 </r>
       <r>    -8.2672     0.0001    22.0000 </r>
       <r>    -8.1865     0.0000    22.0000 </r>
       <r>    -8.1058     0.0001    22.0000 </r>
       <r>    -8.0251     0.2908    22.0235 </r>
       <r>    -7.9444    12.2662    23.0133 </r>
       <r>    -7.8637    11.9613    23.9785 </r>
       <r>    -7.7830     0.2664    24.0000 </r>
       <r>    -7.7023     0.0001    24.0000 </r>
       <r>    -7.6216     0.0304    24.0025 </r>
       <r>    -7.5409     5.6124    24.4553 </r>
       <r>    -7.4602    17.5983    25.8754 </r>
       <r>    -7.3795     1.5421    25.9999 </r>
       <r>    -7.2988     0.0017    26.0000 </r>
       <r>    -7.2182     0.0000    26.0000 </r>
       <r>    -7.1375     0.0000    26.0000 </r>
       <r>    -7.0568     0.0000    26.0000 </r>
       <r>    -6.9761     0.0000    26.0000 </r>
       <r>    -6.8954     0.0000    26.0000 </r>
       <r>    -6.8147     0.0000    26.0000 </r>
       <r>    -6.7340     0.0000    26.0000 </r>
       <r>    -6.6533     0.0000    26.0000 </r>
       <r>    -6.5726     0.0000    26.0000 </r>
       <r>    -6.4919     0.0000    26.0000 </r>
       <r>    -6.4112     0.0000    26.0000 </r>
       <r>    -6.3305     0.0000    26.0000 </r>
       <r>    -6.2498     0.0000    26.0000 </r>
       <r>    -6.1691     0.0000    26.0000 </r>
       <r>    -6.0884     0.0446    26.0036 </r>
       <r>    -6.0077     6.5140    26.5292 </r>
       <r>    -5.9270    17.0083    27.9017 </r>
       <r>    -5.8463     1.2222    28.0003 </r>
       <r>    -5.7657     2.6509    28.2143 </r>
       <r>    -5.6850    18.4350    29.7019 </r>
       <r>    -5.6043     3.6837    29.9991 </r>
       <r>    -5.5236     0.0110    30.0000 </r>
       <r>    -5.4429     0.0000    30.0000 </r>
       <r>    -5.3622     0.0000    30.0000 </r>
       <r>    -5.2815     0.0000    30.0000 </r>
       <r>    -5.2008     0.0000    30.0000 </r>
       <r>    -5.1201     0.0000    30.0000 </r>
       <r>    -5.0394     0.0000    30.0000 </r>
       <r>    -4.9587     0.0000    30.0000 </r>
       <r>    -4.8780     0.0000    30.0000 </r>
       <r>    -4.7973     0.0000    30.0000 </r>
       <r>    -4.7166     0.0000    30.0000 </r>
       <r>    -4.6359     0.0000    30.0000 </r>
       <r>    -4.5552     0.0000    30.0000 </r>
       <r>    -4.4745     0.0000    30.0000 </r>
       <r>    -4.3938     0.0000    30.0000 </r>
       <r>    -4.3131     0.0000    30.0000 </r>
       <r>    -4.2325     0.0000    30.0000 </r>
       <r>    -4.1518     0.0000    30.0000 </r>
       <r>    -4.0711     0.0000    30.0000 </r>
       <r>    -3.9904     0.0000    30.0000 </r>
       <r>    -3.9097     0.0000    30.0000 </r>
       <r>    -3.8290     0.0000    30.0000 </r>
       <r>    -3.7483     0.0000    30.0000 </r>
       <r>    -3.6676     0.0000    30.0000 </r>
       <r>    -3.5869     0.0000    30.0000 </r>
       <r>    -3.5062     0.0000    30.0000 </r>
       <r>    -3.4255     0.0000    30.0000 </r>
       <r>    -3.3448     0.0000    30.0000 </r>
       <r>    -3.2641     0.0000    30.0000 </r>
       <r>    -3.1834     0.0000    30.0000 </r>
       <r>    -3.1027     0.0000    30.0000 </r>
       <r>    -3.0220     0.0000    30.0000 </r>
       <r>    -2.9413     0.0000    30.0000 </r>
       <r>    -2.8606     0.0000    30.0000 </r>
       <r>    -2.7800     0.0000    30.0000 </r>
       <r>    -2.6993     0.0000    30.0000 </r>
       <r>    -2.6186     0.0000    30.0000 </r>
       <r>    -2.5379     0.0000    30.0000 </r>
       <r>    -2.4572     0.0000    30.0000 </r>
       <r>    -2.3765     0.0000    30.0000 </r>
       <r>    -2.2958     0.0000    30.0000 </r>
       <r>    -2.2151     0.0000    30.0000 </r>
       <r>    -2.1344     0.0000    30.0000 </r>
       <r>    -2.0537     0.0000    30.0000 </r>
       <r>    -1.9730     0.0000    30.0000 </r>
       <r>    -1.8923     0.0000    30.0000 </r>
       <r>    -1.8116     0.0000    30.0000 </r>
       <r>    -1.7309     0.0000    30.0000 </r>
       <r>    -1.6502     0.0000    30.0000 </r>
       <r>    -1.5695     0.0000    30.0000 </r>
       <r>    -1.4888     0.0000    30.0000 </r>
       <r>    -1.4081     0.0000    30.0000 </r>
       <r>    -1.3275     0.0000    30.0000 </r>
       <r>    -1.2468     0.1882    30.0152 </r>
       <r>    -1.1661    10.7702    30.8843 </r>
       <r>    -1.0854    13.4223    31.9674 </r>
       <r>    -1.0047     0.4040    32.0000 </r>
       <r>    -0.9240     0.0688    32.0055 </r>
       <r>    -0.8433     7.6543    32.6232 </r>
       <r>    -0.7626    16.1537    33.9267 </r>
       <r>    -0.6819     0.9076    34.0000 </r>
       <r>    -0.6012     0.0017    34.0001 </r>
       <r>    -0.5205     1.2504    34.1010 </r>
       <r>    -0.4398    17.0810    35.4793 </r>
       <r>    -0.3591     6.4096    35.9966 </r>
       <r>    -0.2784     0.0427    36.0000 </r>
       <r>    -0.1977     0.0000    36.0000 </r>
       <r>    -0.1170     0.0000    36.0000 </r>
       <r>    -0.0363     0.0000    36.0000 </r>
       <r>     0.0444     0.0000    36.0000 </r>
       <r>     0.1250     0.0000    36.0000 </r>
       <r>     0.2057     0.0000    36.0000 </r>
       <r>     0.2864     0.0000    36.0000 </r>
       <r>     0.3671     0.0000    36.0000 </r>
       <r>     0.4478     0.0000    36.0000 </r>
       <r>     0.5285     0.0016    36.0001 </r>
       <r>     0.6092     1.4957    36.1208 </r>
       <r>     0.6899    17.5809    37.5395 </r>
       <r>     0.7706    12.8116    38.5733 </r>
       <r>     0.8513    29.2566    40.9342 </r>
       <r>     0.9320    35.0177    43.7599 </r>
       <r>     1.0127    21.0598    45.4593 </r>
       <r>     1.0934     6.6533    45.9962 </r>
       <r>     1.1741     0.0469    46.0000 </r>
       <r>     1.2548     0.0000    46.0000 </r>
       <r>     1.3355     0.0230    46.0019 </r>
       <r>     1.4162     5.0153    46.4066 </r>
       <r>     1.4969    17.9325    47.8536 </r>
       <r>     1.5775     1.8117    47.9998 </r>
       <r>     1.6582     0.0023    48.0000 </r>
       <r>     1.7389     0.0000    48.0000 </r>
       <r>     1.8196     0.0000    48.0000 </r>
       <r>     1.9003     0.0000    48.0000 </r>
       <r>     1.9810     0.0000    48.0000 </r>
       <r>     2.0617     0.0000    48.0000 </r>
       <r>     2.1424     0.0000    48.0000 </r>
       <r>     2.2231     0.0000    48.0000 </r>
       <r>     2.3038     0.0000    48.0000 </r>
       <r>     2.3845     0.0000    48.0000 </r>
       <r>     2.4652     0.0000    48.0000 </r>
       <r>     2.5459     0.0000    48.0000 </r>
      </set>
     </set>
    </array>
   </total>
  </dos>
 </calculation>
 <structure name="finalpos" >
  <crystal>
   <varray name="basis" >
    <v>      10.58354422       0.00000000       0.00000000 </v>
    <v>       0.00000000      10.58354422       0.00000000 </v>
    <v>       0.00000000       0.00000000      10.58354422 </v>
   </varray>
   <i name="volume">   1185.47769178 </i>
   <varray name="rec_basis" >
    <v>       0.09448631       0.00000000       0.00000000 </v>
    <v>       0.00000000       0.09448631       0.00000000 </v>
    <v>       0.00000000       0.00000000       0.09448631 </v>
   </varray>
  </crystal>
  <varray name="positions" >
   <v>       0.49826505       0.63730900       0.50398325 </v>
   <v>       0.38398425       0.56663900       0.49064500 </v>
   <v>       0.38283210       0.43562660       0.49383895 </v>
   <v>       0.49535985       0.36712205       0.49863400 </v>
   <v>       0.61361875       0.43282990       0.50012340 </v>
   <v>       0.61793220       0.56337340       0.49896025 </v>
   <v>       0.50397635       0.73986925       0.51458500 </v>
   <v>       0.29318500       0.61348685       0.50068920 </v>
   <v>       0.29169975       0.38689555       0.49906485 </v>
   <v>       0.51591280       0.26203060       0.50799165 </v>
   <v>       0.70142930       0.37298035       0.50491095 </v>
   <v>       0.70180460       0.62183745       0.48657330 </v>
  </varray>
 </structure>
</modeling>
