<?xml version="1.0" encoding="ISO-8859-1"?>
<modeling>
 <generator>
  <i name="program" type="string">vasp </i>
  <i name="version" type="string">5.4.4.18Apr17-6-g9f103f2a35  </i>
  <i name="subversion" type="string">(build Oct  7 2019 15:10:45) complex            parallel </i>
  <i name="platform" type="string">LinuxGNU </i>
  <i name="date" type="string">2021 11 11 </i>
  <i name="time" type="string">11:34:23 </i>
 </generator>
 <incar>
  <i type="string" name="SYSTEM">mos2</i>
  <i type="int" name="ISTART">     0</i>
  <i type="string" name="PREC">accurate</i>
  <i type="string" name="ALGO"> Normal</i>
  <i type="int" name="NSIM">     4</i>
  <i type="int" name="NELM">  1000</i>
  <i type="int" name="NELMIN">     2</i>
  <i type="int" name="IBRION">    -1</i>
  <i name="EDIFF">      0.00000100</i>
  <i type="int" name="NSW">     0</i>
  <i name="ENCUT">    600.00000000</i>
  <i type="string" name="LREAL"> Auto</i>
  <i type="int" name="ISMEAR">     0</i>
  <i name="SIGMA">      0.05000000</i>
  <i type="logical" name="LWAVE"> F  </i>
  <i type="logical" name="LCHARG"> T  </i>
  <v type="int" name="KPOINT_BSE">    -1     0     0     0</v>
  <i type="int" name="NELM">  1000</i>
 </incar>
 <structure name="primitive_cell" >
  <crystal>
   <varray name="basis" >
    <v>       9.55219900       0.00000000       0.00000000 </v>
    <v>      -4.77610000       8.27244700       0.00000000 </v>
    <v>       0.00000000       0.00000000      18.12711300 </v>
   </varray>
   <i name="volume">   1432.40555618 </i>
   <varray name="rec_basis" >
    <v>       0.10468794       0.06044161      -0.00000000 </v>
    <v>       0.00000000       0.12088322       0.00000000 </v>
    <v>       0.00000000      -0.00000000       0.05516598 </v>
   </varray>
  </crystal>
  <varray name="positions" >
   <v>       0.00363475       0.00662659      -0.49892889 </v>
   <v>       0.21418113       0.10727430      -0.41250208 </v>
   <v>       0.22004002       0.10617806       0.41677155 </v>
   <v>      -0.10915775      -0.21131282      -0.41167961 </v>
   <v>      -0.11554915       0.12405815      -0.42205938 </v>
   <v>      -0.08440110       0.12767035       0.40737445 </v>
   <v>      -0.13490674      -0.23142464       0.41699627 </v>
   <v>       0.33229786       0.32710370      -0.49622646 </v>
   <v>       0.32957909      -0.00562680       0.49921284 </v>
   <v>      -0.32950279       0.00523054       0.48827045 </v>
   <v>       0.01492392       0.34940067       0.49661602 </v>
   <v>      -0.01726836      -0.34102210      -0.49474581 </v>
   <v>      -0.33375735      -0.33515289      -0.49446124 </v>
   <v>       0.20092329      -0.23271445       0.41930037 </v>
   <v>      -0.43351895      -0.20657825      -0.41431389 </v>
   <v>       0.23109202       0.44564471       0.41029648 </v>
   <v>       0.23443751       0.45394595      -0.41430652 </v>
   <v>       0.23034049      -0.21931017      -0.41499383 </v>
   <v>      -0.45477644      -0.23353604       0.41214575 </v>
   <v>      -0.10062212       0.44279431      -0.41429153 </v>
   <v>      -0.44512451       0.44180331       0.42320885 </v>
   <v>      -0.45109195       0.09945461      -0.41956860 </v>
   <v>      -0.45411236       0.11197479       0.40487731 </v>
   <v>      -0.12134558       0.43999609       0.41877687 </v>
   <v>      -0.44086362       0.43885771      -0.40829560 </v>
   <v>      -0.33803809       0.32120243       0.49708894 </v>
   <v>       0.34296253      -0.32935840      -0.49606945 </v>
  </varray>
 </structure>
 <varray name="primitive_index" >
  <v type="int" >        1 </v>
  <v type="int" >       11 </v>
  <v type="int" >       12 </v>
  <v type="int" >       26 </v>
  <v type="int" >       22 </v>
  <v type="int" >       23 </v>
  <v type="int" >       27 </v>
  <v type="int" >        2 </v>
  <v type="int" >        4 </v>
  <v type="int" >        3 </v>
  <v type="int" >        7 </v>
  <v type="int" >        9 </v>
  <v type="int" >        8 </v>
  <v type="int" >       16 </v>
  <v type="int" >       20 </v>
  <v type="int" >       14 </v>
  <v type="int" >       13 </v>
  <v type="int" >       15 </v>
  <v type="int" >       18 </v>
  <v type="int" >       24 </v>
  <v type="int" >       21 </v>
  <v type="int" >       10 </v>
  <v type="int" >       17 </v>
  <v type="int" >       25 </v>
  <v type="int" >       19 </v>
  <v type="int" >        6 </v>
  <v type="int" >        5 </v>
 </varray>
 <kpoints>
  <generation param="Gamma">
   <v type="int" name="divisions">       6        6        1 </v>
   <v name="usershift">      0.00000000       0.00000000       0.00000000 </v>
   <v name="genvec1">      0.16666667       0.00000000       0.00000000 </v>
   <v name="genvec2">      0.00000000       0.16666667       0.00000000 </v>
   <v name="genvec3">      0.00000000       0.00000000       1.00000000 </v>
   <v name="shift">      0.00000000       0.00000000       0.00000000 </v>
  </generation>
  <varray name="kpointlist" >
   <v>       0.00000000       0.00000000       0.00000000 </v>
   <v>       0.16666667       0.00000000       0.00000000 </v>
   <v>       0.33333333       0.00000000       0.00000000 </v>
   <v>       0.50000000       0.00000000       0.00000000 </v>
   <v>       0.00000000       0.16666667       0.00000000 </v>
   <v>       0.16666667       0.16666667       0.00000000 </v>
   <v>       0.33333333       0.16666667       0.00000000 </v>
   <v>       0.50000000       0.16666667       0.00000000 </v>
   <v>      -0.33333333       0.16666667       0.00000000 </v>
   <v>      -0.16666667       0.16666667       0.00000000 </v>
   <v>       0.00000000       0.33333333       0.00000000 </v>
   <v>       0.16666667       0.33333333       0.00000000 </v>
   <v>       0.33333333       0.33333333       0.00000000 </v>
   <v>       0.50000000       0.33333333       0.00000000 </v>
   <v>      -0.33333333       0.33333333       0.00000000 </v>
   <v>      -0.16666667       0.33333333       0.00000000 </v>
   <v>       0.00000000       0.50000000       0.00000000 </v>
   <v>       0.16666667       0.50000000       0.00000000 </v>
   <v>       0.33333333       0.50000000       0.00000000 </v>
   <v>       0.50000000       0.50000000       0.00000000 </v>
  </varray>
  <varray name="weights" >
   <v>       0.02777778 </v>
   <v>       0.05555556 </v>
   <v>       0.05555556 </v>
   <v>       0.02777778 </v>
   <v>       0.05555556 </v>
   <v>       0.05555556 </v>
   <v>       0.05555556 </v>
   <v>       0.05555556 </v>
   <v>       0.05555556 </v>
   <v>       0.05555556 </v>
   <v>       0.05555556 </v>
   <v>       0.05555556 </v>
   <v>       0.05555556 </v>
   <v>       0.05555556 </v>
   <v>       0.05555556 </v>
   <v>       0.05555556 </v>
   <v>       0.02777778 </v>
   <v>       0.05555556 </v>
   <v>       0.05555556 </v>
   <v>       0.02777778 </v>
  </varray>
 </kpoints>
 <parameters>
  <separator name="general" >
   <i type="string" name="SYSTEM">mos2</i>
   <i type="logical" name="LCOMPAT"> F  </i>
  </separator>
  <separator name="electronic" >
   <i type="string" name="PREC">accura</i>
   <i name="ENMAX">    600.00000000</i>
   <i name="ENAUG">    446.01400000</i>
   <i name="EDIFF">      0.00000100</i>
   <i type="int" name="IALGO">    38</i>
   <i type="int" name="IWAVPR">    10</i>
   <i type="int" name="NBANDS">   140</i>
   <i name="NELECT">    234.00000000</i>
   <i type="int" name="TURBO">     0</i>
   <i type="int" name="IRESTART">     0</i>
   <i type="int" name="NREBOOT">     0</i>
   <i type="int" name="NMIN">     0</i>
   <i name="EREF">      0.00000000</i>
   <separator name="electronic smearing" >
    <i type="int" name="ISMEAR">     0</i>
    <i name="SIGMA">      0.05000000</i>
    <i name="KSPACING">      0.50000000</i>
    <i type="logical" name="KGAMMA"> T  </i>
   </separator>
   <separator name="electronic projectors" >
    <i type="logical" name="LREAL"> T  </i>
    <v name="ROPT">     -0.00025000     -0.00025000</v>
    <i type="int" name="LMAXPAW">  -100</i>
    <i type="int" name="LMAXMIX">     2</i>
    <i type="logical" name="NLSPLINE"> F  </i>
   </separator>
   <separator name="electronic startup" >
    <i type="int" name="ISTART">     0</i>
    <i type="int" name="ICHARG">     2</i>
    <i type="int" name="INIWAV">     1</i>
   </separator>
   <separator name="electronic spin" >
    <i type="int" name="ISPIN">     1</i>
    <i type="logical" name="LNONCOLLINEAR"> F  </i>
    <v name="MAGMOM">      1.00000000      1.00000000      1.00000000      1.00000000      1.00000000      1.00000000      1.00000000      1.00000000      1.00000000      1.00000000      1.00000000      1.00000000      1.00000000      1.00000000      1.00000000      1.00000000      1.00000000      1.00000000      1.00000000      1.00000000
      1.00000000      1.00000000      1.00000000      1.00000000      1.00000000      1.00000000      1.00000000</v>
    <i name="NUPDOWN">     -1.00000000</i>
    <i type="logical" name="LSORBIT"> F  </i>
    <v name="SAXIS">      0.00000000      0.00000000      1.00000000</v>
    <i type="logical" name="LSPIRAL"> F  </i>
    <v name="QSPIRAL">      0.00000000      0.00000000      0.00000000</v>
    <i type="logical" name="LZEROZ"> F  </i>
   </separator>
   <separator name="electronic exchange-correlation" >
    <i type="logical" name="LASPH"> F  </i>
    <i type="logical" name="LMETAGGA"> F  </i>
   </separator>
   <separator name="electronic convergence" >
    <i type="int" name="NELM">  1000</i>
    <i type="int" name="NELMDL">    -5</i>
    <i type="int" name="NELMIN">     2</i>
    <i name="ENINI">    600.00000000</i>
    <separator name="electronic convergence detail" >
     <i type="logical" name="LDIAG"> T  </i>
     <i type="logical" name="LSUBROT"> F  </i>
     <i name="WEIMIN">      0.00000000</i>
     <i name="EBREAK">      0.00000000</i>
     <i name="DEPER">      0.30000000</i>
     <i type="int" name="NRMM">     4</i>
     <i name="TIME">      0.40000000</i>
    </separator>
   </separator>
   <separator name="electronic mixer" >
    <i name="AMIX">      0.40000000</i>
    <i name="BMIX">      1.00000000</i>
    <i name="AMIN">      0.10000000</i>
    <i name="AMIX_MAG">      1.60000000</i>
    <i name="BMIX_MAG">      1.00000000</i>
    <separator name="electronic mixer details" >
     <i type="int" name="IMIX">     4</i>
     <i type="logical" name="MIXFIRST"> F  </i>
     <i type="int" name="MAXMIX">   -45</i>
     <i name="WC">    100.00000000</i>
     <i type="int" name="INIMIX">     1</i>
     <i type="int" name="MIXPRE">     1</i>
     <i type="int" name="MREMOVE">     5</i>
    </separator>
   </separator>
   <separator name="electronic dipolcorrection" >
    <i type="logical" name="LDIPOL"> F  </i>
    <i type="logical" name="LMONO"> F  </i>
    <i type="int" name="IDIPOL">     0</i>
    <i name="EPSILON">      1.00000000</i>
    <v name="DIPOL">   -100.00000000   -100.00000000   -100.00000000</v>
    <i name="EFIELD">      0.00000000</i>
   </separator>
  </separator>
  <separator name="grids" >
   <i type="int" name="NGX">    80</i>
   <i type="int" name="NGY">    80</i>
   <i type="int" name="NGZ">   150</i>
   <i type="int" name="NGXF">   160</i>
   <i type="int" name="NGYF">   160</i>
   <i type="int" name="NGZF">   300</i>
   <i type="logical" name="ADDGRID"> F  </i>
  </separator>
  <separator name="ionic" >
   <i type="int" name="NSW">     0</i>
   <i type="int" name="IBRION">    -1</i>
   <i type="int" name="MDALGO">     0</i>
   <i type="int" name="ISIF">     2</i>
   <i name="PSTRESS">      0.00000000</i>
   <i name="EDIFFG">      0.00001000</i>
   <i type="int" name="NFREE">     0</i>
   <i name="POTIM">      0.50000000</i>
   <i name="SMASS">     -3.00000000</i>
   <i name="SCALEE">      1.00000000</i>
  </separator>
  <separator name="ionic md" >
   <i name="TEBEG">      0.00010000</i>
   <i name="TEEND">      0.00010000</i>
   <i type="int" name="NBLOCK">     1</i>
   <i type="int" name="KBLOCK">     1</i>
   <i type="int" name="NPACO">   256</i>
   <i name="APACO">     16.00000000</i>
  </separator>
  <separator name="symmetry" >
   <i type="int" name="ISYM">     2</i>
   <i name="SYMPREC">      0.00001000</i>
  </separator>
  <separator name="dos" >
   <i type="int" name="LORBIT">     0</i>
   <v name="RWIGS">     -1.00000000     -1.00000000</v>
   <i type="int" name="NEDOS">   301</i>
   <i name="EMIN">     10.00000000</i>
   <i name="EMAX">    -10.00000000</i>
   <i name="EFERMI">      0.00000000</i>
  </separator>
  <separator name="writing" >
   <i type="int" name="NWRITE">     2</i>
   <i type="logical" name="LWAVE"> F  </i>
   <i type="logical" name="LDOWNSAMPLE"> F  </i>
   <i type="logical" name="LCHARG"> T  </i>
   <i type="logical" name="LPARD"> F  </i>
   <i type="logical" name="LVTOT"> F  </i>
   <i type="logical" name="LVHAR"> F  </i>
   <i type="logical" name="LELF"> F  </i>
   <i type="logical" name="LOPTICS"> F  </i>
   <v name="STM">      0.00000000      0.00000000      0.00000000      0.00000000      0.00000000      0.00000000      0.00000000</v>
  </separator>
  <separator name="performance" >
   <i type="int" name="NPAR">     4</i>
   <i type="int" name="NSIM">     4</i>
   <i type="int" name="NBLK">    -1</i>
   <i type="logical" name="LPLANE"> T  </i>
   <i type="logical" name="LSCALAPACK"> T  </i>
   <i type="logical" name="LSCAAWARE"> F  </i>
   <i type="logical" name="LSCALU"> F  </i>
   <i type="logical" name="LASYNC"> F  </i>
   <i type="logical" name="LORBITALREAL"> F  </i>
  </separator>
  <separator name="miscellaneous" >
   <i type="int" name="IDIOT">     3</i>
   <i type="int" name="ISPECIAL">     0</i>
   <i type="logical" name="LMUSIC"> F  </i>
   <v name="POMASS">     95.94000000     32.06600000</v>
   <v name="DARWINR">      0.00000000      0.00000000</v>
   <v name="DARWINV">      1.00000000      1.00000000</v>
   <i type="logical" name="LCORR"> T  </i>
  </separator>
  <i type="logical" name="GGA_COMPAT"> T  </i>
  <i type="logical" name="LBERRY"> F  </i>
  <i type="int" name="ICORELEVEL">     0</i>
  <i type="logical" name="LDAU"> F  </i>
  <i type="int" name="I_CONSTRAINED_M">     0</i>
  <separator name="electronic exchange-correlation" >
   <i type="string" name="GGA">--</i>
   <i type="int" name="VOSKOWN">     0</i>
   <i type="logical" name="LHFCALC"> F  </i>
   <i type="string" name="PRECFOCK"></i>
   <i type="logical" name="LSYMGRAD"> F  </i>
   <i type="logical" name="LHFONE"> F  </i>
   <i type="logical" name="LRHFCALC"> F  </i>
   <i type="logical" name="LTHOMAS"> F  </i>
   <i type="logical" name="LMODELHF"> F  </i>
   <i name="ENCUT4O">     -1.00000000</i>
   <i type="int" name="EXXOEP">     0</i>
   <i type="int" name="FOURORBIT">     0</i>
   <i name="AEXX">      0.00000000</i>
   <i name="HFALPHA">      0.00000000</i>
   <i name="MCALPHA">      0.00000000</i>
   <i name="ALDAX">      1.00000000</i>
   <i name="AGGAX">      1.00000000</i>
   <i name="ALDAC">      1.00000000</i>
   <i name="AGGAC">      1.00000000</i>
   <i type="int" name="NKREDX">     1</i>
   <i type="int" name="NKREDY">     1</i>
   <i type="int" name="NKREDZ">     1</i>
   <i type="logical" name="SHIFTRED"> F  </i>
   <i type="logical" name="ODDONLY"> F  </i>
   <i type="logical" name="EVENONLY"> F  </i>
   <i type="int" name="LMAXFOCK">     0</i>
   <i type="int" name="NMAXFOCKAE">     0</i>
   <i type="logical" name="LFOCKAEDFT"> F  </i>
   <i name="HFSCREEN">      0.00000000</i>
   <i name="HFSCREENC">      0.00000000</i>
   <i type="int" name="NBANDSGWLOW">     0</i>
  </separator>
  <separator name="vdW DFT" >
   <i type="logical" name="LUSE_VDW"> F  </i>
   <i name="Zab_VDW">     -0.84910000</i>
   <i name="PARAM1">      0.12340000</i>
   <i name="PARAM2">      1.00000000</i>
   <i name="PARAM3">      0.00000000</i>
  </separator>
  <separator name="model GW" >
   <i type="int" name="MODEL_GW">     0</i>
   <i name="MODEL_EPS0">     31.83123458</i>
   <i name="MODEL_ALPHA">      1.00000000</i>
  </separator>
  <separator name="linear response parameters" >
   <i type="logical" name="LEPSILON"> F  </i>
   <i type="logical" name="LRPA"> F  </i>
   <i type="logical" name="LNABLA"> F  </i>
   <i type="logical" name="LVEL"> F  </i>
   <i type="int" name="KINTER">     0</i>
   <i name="CSHIFT">      0.10000000</i>
   <i name="OMEGAMAX">     -1.00000000</i>
   <i name="DEG_THRESHOLD">      0.00200000</i>
   <i name="RTIME">     -0.10000000</i>
   <i name="WPLASMAI">      0.00000000</i>
   <v name="DFIELD">      0.00000000      0.00000000      0.00000000</v>
   <v name="WPLASMA">      0.00000000      0.00000000      0.00000000      0.00000000      0.00000000      0.00000000      0.00000000      0.00000000      0.00000000</v>
  </separator>
  <separator name="orbital magnetization" >
   <i type="logical" name="NUCIND"> F  </i>
   <v name="MAGPOS">      0.00000000      0.00000000      0.00000000</v>
   <i type="logical" name="LNICSALL"> T  </i>
   <i type="logical" name="ORBITALMAG"> F  </i>
   <i type="logical" name="LMAGBLOCH"> F  </i>
   <i type="logical" name="LCHIMAG"> F  </i>
   <i type="logical" name="LGAUGE"> T  </i>
   <i type="int" name="MAGATOM">     0</i>
   <v name="MAGDIPOL">      0.00000000      0.00000000      0.00000000</v>
   <v name="AVECCONST">      0.00000000      0.00000000      0.00000000</v>
  </separator>
  <separator name="response functions" >
   <i type="logical" name="LADDER"> F  </i>
   <i type="logical" name="LRPAFORCE"> F  </i>
   <i type="logical" name="LFXC"> F  </i>
   <i type="logical" name="LHARTREE"> T  </i>
   <i type="int" name="IBSE">     0</i>
   <v type="int" name="KPOINT">    -1     0     0     0</v>
   <i type="logical" name="LTCTE"> F  </i>
   <i type="logical" name="LTETE"> F  </i>
   <i type="logical" name="LTRIPLET"> F  </i>
   <i type="logical" name="LFXCEPS"> F  </i>
   <i type="logical" name="LFXHEG"> F  </i>
   <i type="int" name="NATURALO">     2</i>
   <i type="logical" name="L2ORDER"> F  </i>
   <i type="logical" name="LMP2LT"> F  </i>
   <i type="logical" name="LUSEW"> F  </i>
   <i name="ENCUTGW">     -2.00000000</i>
   <i name="ENCUTGWSOFT">     -2.00000000</i>
   <i name="ENCUTLF">     -1.00000000</i>
   <i type="int" name="LMAXMP2">    -1</i>
   <i name="SCISSOR">      0.00000000</i>
   <i type="int" name="NOMEGA">     0</i>
   <i type="int" name="NOMEGAR">     0</i>
   <i type="int" name="NBANDSGW">    -1</i>
   <i type="int" name="NBANDSO">    -1</i>
   <i type="int" name="NBANDSV">    -1</i>
   <i type="int" name="NELM">  1000</i>
   <i type="int" name="NELMHF">     1</i>
   <i type="int" name="DIM">     3</i>
   <i type="int" name="ANTIRES">     0</i>
   <i name="OMEGAMAX">    -30.00000000</i>
   <i name="OMEGAMIN">    -30.00000000</i>
   <i name="OMEGATL">   -200.00000000</i>
   <i type="int" name="OMEGAGRID">   140</i>
   <i name="CSHIFT">     -0.10000000</i>
   <i type="logical" name="SELFENERGY"> F  </i>
   <i type="logical" name="LSPECTRAL"> F  </i>
   <i type="logical" name="LSPECTRALGW"> F  </i>
   <i type="logical" name="LSINGLES"> F  </i>
   <i type="logical" name="LFERMIGW"> F  </i>
   <i type="logical" name="ODDONLYGW"> F  </i>
   <i type="logical" name="EVENONLYGW"> F  </i>
   <i type="int" name="NKREDLFX">     1</i>
   <i type="int" name="NKREDLFY">     1</i>
   <i type="int" name="NKREDLFZ">     1</i>
   <i type="int" name="MAXMEM">  2800</i>
   <i type="int" name="TELESCOPE">     0</i>
   <i type="int" name="TAUPAR">     1</i>
   <i type="int" name="OMEGAPAR">    -1</i>
   <i name="LAMBDA">      1.00000000</i>
  </separator>
  <separator name="External order field" >
   <i name="OFIELD_KAPPA">      0.00000000</i>
   <v name="OFIELD_K">      0.00000000      0.00000000      0.00000000</v>
   <i name="OFIELD_Q6_NEAR">      0.00000000</i>
   <i name="OFIELD_Q6_FAR">      0.00000000</i>
   <i name="OFIELD_A">      0.00000000</i>
  </separator>
 </parameters>
 <atominfo>
  <atoms>      27 </atoms>
  <types>       2 </types>
  <array name="atoms" >
   <dimension dim="1">ion</dimension>
   <field type="string">element</field>
   <field type="int">atomtype</field>
   <set>
    <rc><c>Mo</c><c>   1</c></rc>
    <rc><c>Mo</c><c>   1</c></rc>
    <rc><c>Mo</c><c>   1</c></rc>
    <rc><c>Mo</c><c>   1</c></rc>
    <rc><c>Mo</c><c>   1</c></rc>
    <rc><c>Mo</c><c>   1</c></rc>
    <rc><c>Mo</c><c>   1</c></rc>
    <rc><c>Mo</c><c>   1</c></rc>
    <rc><c>Mo</c><c>   1</c></rc>
    <rc><c>S </c><c>   2</c></rc>
    <rc><c>S </c><c>   2</c></rc>
    <rc><c>S </c><c>   2</c></rc>
    <rc><c>S </c><c>   2</c></rc>
    <rc><c>S </c><c>   2</c></rc>
    <rc><c>S </c><c>   2</c></rc>
    <rc><c>S </c><c>   2</c></rc>
    <rc><c>S </c><c>   2</c></rc>
    <rc><c>S </c><c>   2</c></rc>
    <rc><c>S </c><c>   2</c></rc>
    <rc><c>S </c><c>   2</c></rc>
    <rc><c>S </c><c>   2</c></rc>
    <rc><c>S </c><c>   2</c></rc>
    <rc><c>S </c><c>   2</c></rc>
    <rc><c>S </c><c>   2</c></rc>
    <rc><c>S </c><c>   2</c></rc>
    <rc><c>S </c><c>   2</c></rc>
    <rc><c>S </c><c>   2</c></rc>
   </set>
  </array>
  <array name="atomtypes" >
   <dimension dim="1">type</dimension>
   <field type="int">atomspertype</field>
   <field type="string">element</field>
   <field>mass</field>
   <field>valence</field>
   <field type="string">pseudopotential</field>
   <set>
    <rc><c>   9</c><c>Mo</c><c>     95.94000000</c><c>     14.00000000</c><c>  PAW_PBE Mo_sv 02Feb2006               </c></rc>
    <rc><c>  18</c><c>S </c><c>     32.06600000</c><c>      6.00000000</c><c>  PAW_PBE S 06Sep2000                   </c></rc>
   </set>
  </array>
 </atominfo>
 <structure name="initialpos" >
  <crystal>
   <varray name="basis" >
    <v>       9.55219900       0.00000000       0.00000000 </v>
    <v>      -4.77610000       8.27244700       0.00000000 </v>
    <v>       0.00000000       0.00000000      18.12711300 </v>
   </varray>
   <i name="volume">   1432.40555618 </i>
   <varray name="rec_basis" >
    <v>       0.10468794       0.06044161      -0.00000000 </v>
    <v>       0.00000000       0.12088322       0.00000000 </v>
    <v>       0.00000000      -0.00000000       0.05516598 </v>
   </varray>
  </crystal>
  <varray name="positions" >
   <v>       0.00363475       0.00662659       0.50107111 </v>
   <v>       0.33229786       0.32710370       0.50377354 </v>
   <v>       0.67049721       0.00523054       0.48827045 </v>
   <v>       0.32957909       0.99437320       0.49921284 </v>
   <v>       0.34296253       0.67064160       0.50393055 </v>
   <v>       0.66196191       0.32120243       0.49708894 </v>
   <v>       0.01492392       0.34940067       0.49661602 </v>
   <v>       0.66624265       0.66484711       0.50553876 </v>
   <v>       0.98273164       0.65897790       0.50525419 </v>
   <v>       0.54890805       0.09945461       0.58043140 </v>
   <v>       0.21418113       0.10727430       0.58749792 </v>
   <v>       0.22004002       0.10617806       0.41677155 </v>
   <v>       0.23443751       0.45394595       0.58569348 </v>
   <v>       0.23109202       0.44564471       0.41029648 </v>
   <v>       0.23034049       0.78068983       0.58500617 </v>
   <v>       0.20092329       0.76728555       0.41930037 </v>
   <v>       0.54588764       0.11197479       0.40487731 </v>
   <v>       0.54522356       0.76646396       0.41214575 </v>
   <v>       0.55913638       0.43885771       0.59170440 </v>
   <v>       0.56648105       0.79342175       0.58568611 </v>
   <v>       0.55487549       0.44180331       0.42320885 </v>
   <v>       0.88445085       0.12405815       0.57794062 </v>
   <v>       0.91559890       0.12767035       0.40737445 </v>
   <v>       0.89937788       0.44279431       0.58570847 </v>
   <v>       0.87865442       0.43999609       0.41877687 </v>
   <v>       0.89084225       0.78868718       0.58832039 </v>
   <v>       0.86509326       0.76857536       0.41699627 </v>
  </varray>
 </structure>
 <calculation>
  <scstep>
   <time name="dav">   82.60   83.10</time>
   <time name="total">   83.18   83.68</time>
   <energy>
    <i name="alphaZ">    267.51052480 </i>
    <i name="ewald">  40461.09967431 </i>
    <i name="hartreedc"> -59524.56813468 </i>
    <i name="XCdc">    822.96164623 </i>
    <i name="pawpsdc">  17395.10119161 </i>
    <i name="pawaedc"> -17171.31696658 </i>
    <i name="eentropy">     -0.01514819 </i>
    <i name="bandstr">  -1787.88733676 </i>
    <i name="atom">  21743.34108040 </i>
    <i name="e_fr_energy">   2206.22653113 </i>
    <i name="e_wo_entrp">   2206.24167932 </i>
    <i name="e_0_energy">   2206.23410523 </i>
   </energy>
  </scstep>
  <scstep>
   <time name="dav">   87.99   88.51</time>
   <time name="total">   88.00   88.51</time>
   <energy>
    <i name="e_fr_energy">      7.52692462 </i>
    <i name="e_wo_entrp">      7.52692462 </i>
    <i name="e_0_energy">      7.52692462 </i>
   </energy>
  </scstep>
  <scstep>
   <time name="dav">   77.86   78.33</time>
   <time name="total">   77.87   78.33</time>
   <energy>
    <i name="e_fr_energy">   -200.09461063 </i>
    <i name="e_wo_entrp">   -200.09461063 </i>
    <i name="e_0_energy">   -200.09461063 </i>
   </energy>
  </scstep>
  <scstep>
   <time name="dav">   86.35   86.85</time>
   <time name="total">   86.35   86.85</time>
   <energy>
    <i name="e_fr_energy">   -208.30621555 </i>
    <i name="e_wo_entrp">   -208.30621555 </i>
    <i name="e_0_energy">   -208.30621555 </i>
   </energy>
  </scstep>
  <scstep>
   <time name="dav">   92.71   93.26</time>
   <time name="total">   98.98   99.56</time>
   <energy>
    <i name="e_fr_energy">   -208.56645958 </i>
    <i name="e_wo_entrp">   -208.56645958 </i>
    <i name="e_0_energy">   -208.56645958 </i>
   </energy>
  </scstep>
  <scstep>
   <time name="dav">   76.13   76.58</time>
   <time name="total">   82.94   83.42</time>
   <energy>
    <i name="e_fr_energy">   -198.41429802 </i>
    <i name="e_wo_entrp">   -198.41429802 </i>
    <i name="e_0_energy">   -198.41429802 </i>
   </energy>
  </scstep>
  <scstep>
   <time name="dav">   75.00   75.45</time>
   <time name="total">   81.70   82.18</time>
   <energy>
    <i name="e_fr_energy">   -196.63337394 </i>
    <i name="e_wo_entrp">   -196.63337394 </i>
    <i name="e_0_energy">   -196.63337394 </i>
   </energy>
  </scstep>
  <scstep>
   <time name="dav">   80.07   80.53</time>
   <time name="total">   86.83   87.33</time>
   <energy>
    <i name="e_fr_energy">   -195.11591913 </i>
    <i name="e_wo_entrp">   -195.11591913 </i>
    <i name="e_0_energy">   -195.11591913 </i>
   </energy>
  </scstep>
  <scstep>
   <time name="dav">   85.51   86.04</time>
   <time name="total">   92.29   92.85</time>
   <energy>
    <i name="e_fr_energy">   -195.05812531 </i>
    <i name="e_wo_entrp">   -195.05812531 </i>
    <i name="e_0_energy">   -195.05812531 </i>
   </energy>
  </scstep>
  <scstep>
   <time name="dav">   84.48   84.94</time>
   <time name="total">   91.19   91.68</time>
   <energy>
    <i name="e_fr_energy">   -194.96704891 </i>
    <i name="e_wo_entrp">   -194.96704891 </i>
    <i name="e_0_energy">   -194.96704891 </i>
   </energy>
  </scstep>
  <scstep>
   <time name="dav">   87.00   87.44</time>
   <time name="total">   93.74   94.20</time>
   <energy>
    <i name="e_fr_energy">   -194.94580558 </i>
    <i name="e_wo_entrp">   -194.94580558 </i>
    <i name="e_0_energy">   -194.94580558 </i>
   </energy>
  </scstep>
  <scstep>
   <time name="dav">   89.32   89.78</time>
   <time name="total">   96.11   96.60</time>
   <energy>
    <i name="e_fr_energy">   -194.94213180 </i>
    <i name="e_wo_entrp">   -194.94213180 </i>
    <i name="e_0_energy">   -194.94213180 </i>
   </energy>
  </scstep>
  <scstep>
   <time name="dav">   85.49   85.94</time>
   <time name="total">   92.32   92.80</time>
   <energy>
    <i name="e_fr_energy">   -194.93934115 </i>
    <i name="e_wo_entrp">   -194.93934115 </i>
    <i name="e_0_energy">   -194.93934115 </i>
   </energy>
  </scstep>
  <scstep>
   <time name="dav">   82.89   83.35</time>
   <time name="total">   89.63   90.11</time>
   <energy>
    <i name="e_fr_energy">   -194.93829134 </i>
    <i name="e_wo_entrp">   -194.93829134 </i>
    <i name="e_0_energy">   -194.93829134 </i>
   </energy>
  </scstep>
  <scstep>
   <time name="dav">   80.95   81.43</time>
   <time name="total">   87.77   88.29</time>
   <energy>
    <i name="e_fr_energy">   -194.93804526 </i>
    <i name="e_wo_entrp">   -194.93804526 </i>
    <i name="e_0_energy">   -194.93804526 </i>
   </energy>
  </scstep>
  <scstep>
   <time name="dav">   81.36   81.87</time>
   <time name="total">   88.06   88.60</time>
   <energy>
    <i name="e_fr_energy">   -194.93827331 </i>
    <i name="e_wo_entrp">   -194.93827331 </i>
    <i name="e_0_energy">   -194.93827331 </i>
   </energy>
  </scstep>
  <scstep>
   <time name="dav">   81.62   82.08</time>
   <time name="total">   88.30   88.79</time>
   <energy>
    <i name="e_fr_energy">   -194.93859894 </i>
    <i name="e_wo_entrp">   -194.93859894 </i>
    <i name="e_0_energy">   -194.93859894 </i>
   </energy>
  </scstep>
  <scstep>
   <time name="dav">   78.50   78.95</time>
   <time name="total">   85.18   85.67</time>
   <energy>
    <i name="e_fr_energy">   -194.93920524 </i>
    <i name="e_wo_entrp">   -194.93920524 </i>
    <i name="e_0_energy">   -194.93920524 </i>
   </energy>
  </scstep>
  <scstep>
   <time name="dav">   84.73   85.24</time>
   <time name="total">   91.42   91.96</time>
   <energy>
    <i name="e_fr_energy">   -194.93946597 </i>
    <i name="e_wo_entrp">   -194.93946597 </i>
    <i name="e_0_energy">   -194.93946597 </i>
   </energy>
  </scstep>
  <scstep>
   <time name="dav">   71.07   71.48</time>
   <time name="total">   77.79   78.24</time>
   <energy>
    <i name="e_fr_energy">   -194.93952637 </i>
    <i name="e_wo_entrp">   -194.93952637 </i>
    <i name="e_0_energy">   -194.93952637 </i>
   </energy>
  </scstep>
  <scstep>
   <time name="dav">   70.17   70.59</time>
   <time name="total">   76.93   77.38</time>
   <energy>
    <i name="e_fr_energy">   -194.93971411 </i>
    <i name="e_wo_entrp">   -194.93971411 </i>
    <i name="e_0_energy">   -194.93971411 </i>
   </energy>
  </scstep>
  <scstep>
   <time name="dav">   67.06   67.45</time>
   <time name="total">   73.77   74.20</time>
   <energy>
    <i name="e_fr_energy">   -194.93982157 </i>
    <i name="e_wo_entrp">   -194.93982157 </i>
    <i name="e_0_energy">   -194.93982157 </i>
   </energy>
  </scstep>
  <scstep>
   <time name="dav">   60.46   60.82</time>
   <time name="total">   67.18   67.58</time>
   <energy>
    <i name="e_fr_energy">   -194.93992408 </i>
    <i name="e_wo_entrp">   -194.93992408 </i>
    <i name="e_0_energy">   -194.93992408 </i>
   </energy>
  </scstep>
  <scstep>
   <time name="dav">   61.26   61.62</time>
   <time name="total">   67.96   68.35</time>
   <energy>
    <i name="e_fr_energy">   -194.94002170 </i>
    <i name="e_wo_entrp">   -194.94002170 </i>
    <i name="e_0_energy">   -194.94002170 </i>
   </energy>
  </scstep>
  <scstep>
   <time name="dav">   64.92   65.30</time>
   <time name="total">   71.62   72.03</time>
   <energy>
    <i name="e_fr_energy">   -194.94014480 </i>
    <i name="e_wo_entrp">   -194.94014480 </i>
    <i name="e_0_energy">   -194.94014480 </i>
   </energy>
  </scstep>
  <scstep>
   <time name="dav">   59.30   59.61</time>
   <time name="total">   65.99   66.33</time>
   <energy>
    <i name="e_fr_energy">   -194.94018691 </i>
    <i name="e_wo_entrp">   -194.94018691 </i>
    <i name="e_0_energy">   -194.94018691 </i>
   </energy>
  </scstep>
  <scstep>
   <time name="dav">   56.43   56.74</time>
   <time name="total">   63.12   63.45</time>
   <energy>
    <i name="e_fr_energy">   -194.94020822 </i>
    <i name="e_wo_entrp">   -194.94020822 </i>
    <i name="e_0_energy">   -194.94020822 </i>
   </energy>
  </scstep>
  <scstep>
   <time name="dav">   53.29   53.58</time>
   <time name="total">   60.00   60.31</time>
   <energy>
    <i name="e_fr_energy">   -194.94021698 </i>
    <i name="e_wo_entrp">   -194.94021698 </i>
    <i name="e_0_energy">   -194.94021698 </i>
   </energy>
  </scstep>
  <scstep>
   <time name="dav">   54.44   54.75</time>
   <time name="total">   61.17   61.50</time>
   <energy>
    <i name="e_fr_energy">   -194.94022285 </i>
    <i name="e_wo_entrp">   -194.94022285 </i>
    <i name="e_0_energy">   -194.94022285 </i>
   </energy>
  </scstep>
  <scstep>
   <time name="dav">   48.64   48.91</time>
   <time name="total">   55.26   55.56</time>
   <energy>
    <i name="e_fr_energy">   -194.94022449 </i>
    <i name="e_wo_entrp">   -194.94022449 </i>
    <i name="e_0_energy">   -194.94022449 </i>
   </energy>
  </scstep>
  <scstep>
   <time name="dav">   47.98   48.24</time>
   <time name="total">   48.49   48.76</time>
   <energy>
    <i name="alphaZ">    267.51052480 </i>
    <i name="ewald">  40461.09967431 </i>
    <i name="hartreedc"> -59494.33402279 </i>
    <i name="XCdc">    818.11505142 </i>
    <i name="pawpsdc">  26676.87190316 </i>
    <i name="pawaedc"> -26487.69246662 </i>
    <i name="eentropy">     -0.00000000 </i>
    <i name="bandstr">  -4179.85196983 </i>
    <i name="atom">  21743.34108040 </i>
    <i name="e_fr_energy">   -194.94022514 </i>
    <i name="e_wo_entrp">   -194.94022514 </i>
    <i name="e_0_energy">   -194.94022514 </i>
   </energy>
  </scstep>
  <structure>
   <crystal>
    <varray name="basis" >
     <v>       9.55219900       0.00000000       0.00000000 </v>
     <v>      -4.77610000       8.27244700       0.00000000 </v>
     <v>       0.00000000       0.00000000      18.12711300 </v>
    </varray>
    <i name="volume">   1432.40555618 </i>
    <varray name="rec_basis" >
     <v>       0.10468794       0.06044161      -0.00000000 </v>
     <v>       0.00000000       0.12088322       0.00000000 </v>
     <v>       0.00000000      -0.00000000       0.05516598 </v>
    </varray>
   </crystal>
   <varray name="positions" >
    <v>       0.00363475       0.00662659       0.50107111 </v>
    <v>       0.33229786       0.32710370       0.50377354 </v>
    <v>       0.67049721       0.00523054       0.48827045 </v>
    <v>       0.32957909       0.99437320       0.49921284 </v>
    <v>       0.34296253       0.67064160       0.50393055 </v>
    <v>       0.66196191       0.32120243       0.49708894 </v>
    <v>       0.01492392       0.34940067       0.49661602 </v>
    <v>       0.66624265       0.66484711       0.50553876 </v>
    <v>       0.98273164       0.65897790       0.50525419 </v>
    <v>       0.54890805       0.09945461       0.58043140 </v>
    <v>       0.21418113       0.10727430       0.58749792 </v>
    <v>       0.22004002       0.10617806       0.41677155 </v>
    <v>       0.23443751       0.45394595       0.58569348 </v>
    <v>       0.23109202       0.44564471       0.41029648 </v>
    <v>       0.23034049       0.78068983       0.58500617 </v>
    <v>       0.20092329       0.76728555       0.41930037 </v>
    <v>       0.54588764       0.11197479       0.40487731 </v>
    <v>       0.54522356       0.76646396       0.41214575 </v>
    <v>       0.55913638       0.43885771       0.59170440 </v>
    <v>       0.56648105       0.79342175       0.58568611 </v>
    <v>       0.55487549       0.44180331       0.42320885 </v>
    <v>       0.88445085       0.12405815       0.57794062 </v>
    <v>       0.91559890       0.12767035       0.40737445 </v>
    <v>       0.89937788       0.44279431       0.58570847 </v>
    <v>       0.87865442       0.43999609       0.41877687 </v>
    <v>       0.89084225       0.78868718       0.58832039 </v>
    <v>       0.86509326       0.76857536       0.41699627 </v>
   </varray>
  </structure>
  <varray name="forces" >
   <v>      -0.89684397      -1.11068900      -0.84898157 </v>
   <v>      -0.12344971       0.83279875      -0.30383302 </v>
   <v>      -0.19711488      -0.29806039       1.00382622 </v>
   <v>      -0.51798983       0.65327113      -0.32184545 </v>
   <v>      -1.05890942      -0.53710153      -2.01956023 </v>
   <v>      -0.06104895       0.49196050       2.44261720 </v>
   <v>      -0.05460102      -1.34422858       0.14495059 </v>
   <v>      -1.28131411       0.22109963       0.08108047 </v>
   <v>       1.23270118       1.35325722      -0.91590187 </v>
   <v>       0.74832824       0.25038310       0.22769151 </v>
   <v>       0.80220728      -0.10194075       0.47087237 </v>
   <v>       0.05411985       0.32611831      -0.63182636 </v>
   <v>      -0.29452957      -0.60193522       0.66977790 </v>
   <v>       0.35887394       0.54785151       0.84225613 </v>
   <v>      -0.96869511      -0.50035114       0.88369810 </v>
   <v>       0.84408596      -0.14760013      -0.36822869 </v>
   <v>       0.33679981      -0.43564422       0.46118486 </v>
   <v>       0.84649111       0.47238642       0.07812226 </v>
   <v>       0.01952538      -0.34465995      -0.54518788 </v>
   <v>       0.05805432       0.18541606      -0.10111269 </v>
   <v>      -0.33872757       0.06432073      -1.51868770 </v>
   <v>       0.51311326      -0.21446485       0.32086633 </v>
   <v>      -0.94480635      -0.38022324       0.46605291 </v>
   <v>      -1.04847045      -0.62641285       0.68477696 </v>
   <v>       0.61086838       0.83127546      -1.64232465 </v>
   <v>      -0.12306481      -0.34863914       0.64916374 </v>
   <v>       1.48439703       0.76181217      -0.20944745 </v>
  </varray>
  <varray name="stress" >
   <v>       5.69959097       0.68037912      -6.18707650 </v>
   <v>       0.68037913       5.85227252      -7.10753607 </v>
   <v>      -6.18707641      -7.10753604       8.30887412 </v>
  </varray>
  <energy>
   <i name="e_fr_energy">   -194.94022514 </i>
   <i name="e_wo_entrp">   -194.94022514 </i>
   <i name="e_0_energy">     -0.00000000 </i>
  </energy>
  <time name="totalsc"> 2593.43 2608.10</time>
  <eigenvalues>
   <array>
    <dimension dim="1">band</dimension>
    <dimension dim="2">kpoint</dimension>
    <dimension dim="3">spin</dimension>
    <field>eigene</field>
    <field>occ</field>
    <set>
     <set comment="spin 1">
      <set comment="kpoint 1">
       <r>  -62.5054    1.0000 </r>
       <r>  -62.4822    1.0000 </r>
       <r>  -62.4656    1.0000 </r>
       <r>  -62.4582    1.0000 </r>
       <r>  -62.4563    1.0000 </r>
       <r>  -62.4508    1.0000 </r>
       <r>  -62.4479    1.0000 </r>
       <r>  -62.4416    1.0000 </r>
       <r>  -62.4361    1.0000 </r>
       <r>  -36.7703    1.0000 </r>
       <r>  -36.7405    1.0000 </r>
       <r>  -36.7317    1.0000 </r>
       <r>  -36.7260    1.0000 </r>
       <r>  -36.7214    1.0000 </r>
       <r>  -36.7061    1.0000 </r>
       <r>  -36.6963    1.0000 </r>
       <r>  -36.6820    1.0000 </r>
       <r>  -36.6742    1.0000 </r>
       <r>  -36.6701    1.0000 </r>
       <r>  -36.6368    1.0000 </r>
       <r>  -36.5981    1.0000 </r>
       <r>  -36.5884    1.0000 </r>
       <r>  -36.5848    1.0000 </r>
       <r>  -36.5820    1.0000 </r>
       <r>  -36.5754    1.0000 </r>
       <r>  -36.5646    1.0000 </r>
       <r>  -36.5545    1.0000 </r>
       <r>  -36.5426    1.0000 </r>
       <r>  -36.5157    1.0000 </r>
       <r>  -36.5066    1.0000 </r>
       <r>  -36.4966    1.0000 </r>
       <r>  -36.4906    1.0000 </r>
       <r>  -36.4782    1.0000 </r>
       <r>  -36.4748    1.0000 </r>
       <r>  -36.4295    1.0000 </r>
       <r>  -36.4183    1.0000 </r>
       <r>  -15.7778    1.0000 </r>
       <r>  -14.5886    1.0000 </r>
       <r>  -14.5730    1.0000 </r>
       <r>  -14.5005    1.0000 </r>
       <r>  -14.4627    1.0000 </r>
       <r>  -14.4259    1.0000 </r>
       <r>  -14.4150    1.0000 </r>
       <r>  -14.3204    1.0000 </r>
       <r>  -13.9731    1.0000 </r>
       <r>  -13.9394    1.0000 </r>
       <r>  -13.9009    1.0000 </r>
       <r>  -13.8904    1.0000 </r>
       <r>  -13.8145    1.0000 </r>
       <r>  -13.7830    1.0000 </r>
       <r>  -13.6244    1.0000 </r>
       <r>  -13.5920    1.0000 </r>
       <r>  -13.5194    1.0000 </r>
       <r>  -13.4071    1.0000 </r>
       <r>   -7.3061    1.0000 </r>
       <r>   -7.2210    1.0000 </r>
       <r>   -7.1171    1.0000 </r>
       <r>   -6.9511    1.0000 </r>
       <r>   -6.9400    1.0000 </r>
       <r>   -6.9065    1.0000 </r>
       <r>   -6.8815    1.0000 </r>
       <r>   -6.8330    1.0000 </r>
       <r>   -6.8292    1.0000 </r>
       <r>   -6.3923    1.0000 </r>
       <r>   -6.2531    1.0000 </r>
       <r>   -5.9904    1.0000 </r>
       <r>   -5.9636    1.0000 </r>
       <r>   -5.8961    1.0000 </r>
       <r>   -5.8690    1.0000 </r>
       <r>   -5.8208    1.0000 </r>
       <r>   -5.7697    1.0000 </r>
       <r>   -5.7235    1.0000 </r>
       <r>   -5.6248    1.0000 </r>
       <r>   -5.5808    1.0000 </r>
       <r>   -5.5491    1.0000 </r>
       <r>   -5.5172    1.0000 </r>
       <r>   -5.4862    1.0000 </r>
       <r>   -5.4448    1.0000 </r>
       <r>   -5.4170    1.0000 </r>
       <r>   -5.2323    1.0000 </r>
       <r>   -5.1975    1.0000 </r>
       <r>   -4.6916    1.0000 </r>
       <r>   -4.6578    1.0000 </r>
       <r>   -4.6169    1.0000 </r>
       <r>   -4.5808    1.0000 </r>
       <r>   -4.4841    1.0000 </r>
       <r>   -4.4754    1.0000 </r>
       <r>   -4.4158    1.0000 </r>
       <r>   -4.3188    1.0000 </r>
       <r>   -4.2409    1.0000 </r>
       <r>   -4.1989    1.0000 </r>
       <r>   -3.8792    1.0000 </r>
       <r>   -3.7372    1.0000 </r>
       <r>   -3.4319    1.0000 </r>
       <r>   -3.4261    1.0000 </r>
       <r>   -3.3898    1.0000 </r>
       <r>   -3.3081    1.0000 </r>
       <r>   -3.2744    1.0000 </r>
       <r>   -3.2573    1.0000 </r>
       <r>   -3.2410    1.0000 </r>
       <r>   -3.2008    1.0000 </r>
       <r>   -3.1336    1.0000 </r>
       <r>   -3.0875    1.0000 </r>
       <r>   -3.0313    1.0000 </r>
       <r>   -2.9823    1.0000 </r>
       <r>   -2.9466    1.0000 </r>
       <r>   -2.8958    1.0000 </r>
       <r>   -2.8654    1.0000 </r>
       <r>   -2.5764    1.0000 </r>
       <r>   -2.5736    1.0000 </r>
       <r>   -2.5168    1.0000 </r>
       <r>   -2.4719    1.0000 </r>
       <r>   -2.4548    1.0000 </r>
       <r>   -2.4272    1.0000 </r>
       <r>   -1.6797    1.0000 </r>
       <r>   -1.6082    1.0000 </r>
       <r>   -1.5406    1.0000 </r>
       <r>   -0.0631    0.0000 </r>
       <r>   -0.0459    0.0000 </r>
       <r>    0.3548    0.0000 </r>
       <r>    0.4049    0.0000 </r>
       <r>    0.5045    0.0000 </r>
       <r>    0.5332    0.0000 </r>
       <r>    0.5517    0.0000 </r>
       <r>    0.5709    0.0000 </r>
       <r>    0.6043    0.0000 </r>
       <r>    0.6793    0.0000 </r>
       <r>    0.7211    0.0000 </r>
       <r>    0.7685    0.0000 </r>
       <r>    0.7875    0.0000 </r>
       <r>    0.9360    0.0000 </r>
       <r>    1.0442    0.0000 </r>
       <r>    1.1410    0.0000 </r>
       <r>    1.2677    0.0000 </r>
       <r>    1.3307    0.0000 </r>
       <r>    1.4357    0.0000 </r>
       <r>    1.5020    0.0000 </r>
       <r>    1.6551    0.0000 </r>
       <r>    1.7020    0.0000 </r>
       <r>    1.7912    0.0000 </r>
      </set>
      <set comment="kpoint 2">
       <r>  -62.5052    1.0000 </r>
       <r>  -62.4822    1.0000 </r>
       <r>  -62.4662    1.0000 </r>
       <r>  -62.4594    1.0000 </r>
       <r>  -62.4560    1.0000 </r>
       <r>  -62.4503    1.0000 </r>
       <r>  -62.4467    1.0000 </r>
       <r>  -62.4420    1.0000 </r>
       <r>  -62.4364    1.0000 </r>
       <r>  -36.7852    1.0000 </r>
       <r>  -36.7639    1.0000 </r>
       <r>  -36.7481    1.0000 </r>
       <r>  -36.7371    1.0000 </r>
       <r>  -36.7215    1.0000 </r>
       <r>  -36.6950    1.0000 </r>
       <r>  -36.6811    1.0000 </r>
       <r>  -36.6611    1.0000 </r>
       <r>  -36.6535    1.0000 </r>
       <r>  -36.6451    1.0000 </r>
       <r>  -36.6333    1.0000 </r>
       <r>  -36.6011    1.0000 </r>
       <r>  -36.5902    1.0000 </r>
       <r>  -36.5864    1.0000 </r>
       <r>  -36.5807    1.0000 </r>
       <r>  -36.5717    1.0000 </r>
       <r>  -36.5629    1.0000 </r>
       <r>  -36.5552    1.0000 </r>
       <r>  -36.5432    1.0000 </r>
       <r>  -36.5204    1.0000 </r>
       <r>  -36.5143    1.0000 </r>
       <r>  -36.4990    1.0000 </r>
       <r>  -36.4948    1.0000 </r>
       <r>  -36.4821    1.0000 </r>
       <r>  -36.4700    1.0000 </r>
       <r>  -36.4360    1.0000 </r>
       <r>  -36.4232    1.0000 </r>
       <r>  -15.7320    1.0000 </r>
       <r>  -14.8062    1.0000 </r>
       <r>  -14.6423    1.0000 </r>
       <r>  -14.6269    1.0000 </r>
       <r>  -14.4137    1.0000 </r>
       <r>  -14.3047    1.0000 </r>
       <r>  -14.2682    1.0000 </r>
       <r>  -14.1893    1.0000 </r>
       <r>  -14.0176    1.0000 </r>
       <r>  -13.9817    1.0000 </r>
       <r>  -13.8936    1.0000 </r>
       <r>  -13.8644    1.0000 </r>
       <r>  -13.8028    1.0000 </r>
       <r>  -13.7371    1.0000 </r>
       <r>  -13.6501    1.0000 </r>
       <r>  -13.6031    1.0000 </r>
       <r>  -13.5392    1.0000 </r>
       <r>  -13.4262    1.0000 </r>
       <r>   -7.2710    1.0000 </r>
       <r>   -7.2267    1.0000 </r>
       <r>   -7.1011    1.0000 </r>
       <r>   -7.0762    1.0000 </r>
       <r>   -6.9626    1.0000 </r>
       <r>   -6.9446    1.0000 </r>
       <r>   -6.7740    1.0000 </r>
       <r>   -6.7512    1.0000 </r>
       <r>   -6.6900    1.0000 </r>
       <r>   -6.5630    1.0000 </r>
       <r>   -6.4521    1.0000 </r>
       <r>   -6.1901    1.0000 </r>
       <r>   -6.0698    1.0000 </r>
       <r>   -5.9872    1.0000 </r>
       <r>   -5.8053    1.0000 </r>
       <r>   -5.7525    1.0000 </r>
       <r>   -5.6262    1.0000 </r>
       <r>   -5.6063    1.0000 </r>
       <r>   -5.5703    1.0000 </r>
       <r>   -5.5404    1.0000 </r>
       <r>   -5.5178    1.0000 </r>
       <r>   -5.4688    1.0000 </r>
       <r>   -5.4521    1.0000 </r>
       <r>   -5.4119    1.0000 </r>
       <r>   -5.3545    1.0000 </r>
       <r>   -5.0949    1.0000 </r>
       <r>   -5.0608    1.0000 </r>
       <r>   -4.8219    1.0000 </r>
       <r>   -4.7331    1.0000 </r>
       <r>   -4.6719    1.0000 </r>
       <r>   -4.6607    1.0000 </r>
       <r>   -4.5345    1.0000 </r>
       <r>   -4.5018    1.0000 </r>
       <r>   -4.4391    1.0000 </r>
       <r>   -4.3580    1.0000 </r>
       <r>   -4.2344    1.0000 </r>
       <r>   -4.2054    1.0000 </r>
       <r>   -3.8201    1.0000 </r>
       <r>   -3.7552    1.0000 </r>
       <r>   -3.6117    1.0000 </r>
       <r>   -3.4370    1.0000 </r>
       <r>   -3.3964    1.0000 </r>
       <r>   -3.3757    1.0000 </r>
       <r>   -3.3099    1.0000 </r>
       <r>   -3.2706    1.0000 </r>
       <r>   -3.2548    1.0000 </r>
       <r>   -3.1874    1.0000 </r>
       <r>   -3.1228    1.0000 </r>
       <r>   -3.0841    1.0000 </r>
       <r>   -3.0401    1.0000 </r>
       <r>   -2.9684    1.0000 </r>
       <r>   -2.9215    1.0000 </r>
       <r>   -2.8764    1.0000 </r>
       <r>   -2.7979    1.0000 </r>
       <r>   -2.5372    1.0000 </r>
       <r>   -2.4904    1.0000 </r>
       <r>   -2.4385    1.0000 </r>
       <r>   -2.4066    1.0000 </r>
       <r>   -2.3730    1.0000 </r>
       <r>   -2.3016    1.0000 </r>
       <r>   -1.7589    1.0000 </r>
       <r>   -1.7056    1.0000 </r>
       <r>   -1.5679    1.0000 </r>
       <r>    0.0464    0.0000 </r>
       <r>    0.0704    0.0000 </r>
       <r>    0.3088    0.0000 </r>
       <r>    0.3719    0.0000 </r>
       <r>    0.4790    0.0000 </r>
       <r>    0.5289    0.0000 </r>
       <r>    0.5510    0.0000 </r>
       <r>    0.5630    0.0000 </r>
       <r>    0.6345    0.0000 </r>
       <r>    0.7128    0.0000 </r>
       <r>    0.7369    0.0000 </r>
       <r>    0.8254    0.0000 </r>
       <r>    0.8633    0.0000 </r>
       <r>    0.9577    0.0000 </r>
       <r>    1.0657    0.0000 </r>
       <r>    1.1134    0.0000 </r>
       <r>    1.2232    0.0000 </r>
       <r>    1.2616    0.0000 </r>
       <r>    1.3885    0.0000 </r>
       <r>    1.4494    0.0000 </r>
       <r>    1.5450    0.0000 </r>
       <r>    1.5934    0.0000 </r>
       <r>    1.6594    0.0000 </r>
      </set>
      <set comment="kpoint 3">
       <r>  -62.5046    1.0000 </r>
       <r>  -62.4820    1.0000 </r>
       <r>  -62.4675    1.0000 </r>
       <r>  -62.4614    1.0000 </r>
       <r>  -62.4554    1.0000 </r>
       <r>  -62.4486    1.0000 </r>
       <r>  -62.4452    1.0000 </r>
       <r>  -62.4427    1.0000 </r>
       <r>  -62.4368    1.0000 </r>
       <r>  -36.8087    1.0000 </r>
       <r>  -36.7820    1.0000 </r>
       <r>  -36.7622    1.0000 </r>
       <r>  -36.7522    1.0000 </r>
       <r>  -36.7393    1.0000 </r>
       <r>  -36.6737    1.0000 </r>
       <r>  -36.6576    1.0000 </r>
       <r>  -36.6353    1.0000 </r>
       <r>  -36.6253    1.0000 </r>
       <r>  -36.6151    1.0000 </r>
       <r>  -36.6094    1.0000 </r>
       <r>  -36.5986    1.0000 </r>
       <r>  -36.5912    1.0000 </r>
       <r>  -36.5860    1.0000 </r>
       <r>  -36.5744    1.0000 </r>
       <r>  -36.5690    1.0000 </r>
       <r>  -36.5610    1.0000 </r>
       <r>  -36.5555    1.0000 </r>
       <r>  -36.5449    1.0000 </r>
       <r>  -36.5369    1.0000 </r>
       <r>  -36.5247    1.0000 </r>
       <r>  -36.5112    1.0000 </r>
       <r>  -36.5031    1.0000 </r>
       <r>  -36.4892    1.0000 </r>
       <r>  -36.4689    1.0000 </r>
       <r>  -36.4495    1.0000 </r>
       <r>  -36.4313    1.0000 </r>
       <r>  -15.5980    1.0000 </r>
       <r>  -15.1122    1.0000 </r>
       <r>  -14.7197    1.0000 </r>
       <r>  -14.7065    1.0000 </r>
       <r>  -14.3448    1.0000 </r>
       <r>  -14.1812    1.0000 </r>
       <r>  -14.1396    1.0000 </r>
       <r>  -14.0805    1.0000 </r>
       <r>  -14.0336    1.0000 </r>
       <r>  -13.9800    1.0000 </r>
       <r>  -13.8891    1.0000 </r>
       <r>  -13.8329    1.0000 </r>
       <r>  -13.8050    1.0000 </r>
       <r>  -13.7182    1.0000 </r>
       <r>  -13.6749    1.0000 </r>
       <r>  -13.6128    1.0000 </r>
       <r>  -13.5769    1.0000 </r>
       <r>  -13.4750    1.0000 </r>
       <r>   -7.3831    1.0000 </r>
       <r>   -7.1329    1.0000 </r>
       <r>   -7.0799    1.0000 </r>
       <r>   -7.0528    1.0000 </r>
       <r>   -6.8873    1.0000 </r>
       <r>   -6.8492    1.0000 </r>
       <r>   -6.8087    1.0000 </r>
       <r>   -6.7322    1.0000 </r>
       <r>   -6.6866    1.0000 </r>
       <r>   -6.6378    1.0000 </r>
       <r>   -6.6080    1.0000 </r>
       <r>   -6.3683    1.0000 </r>
       <r>   -6.2814    1.0000 </r>
       <r>   -6.2166    1.0000 </r>
       <r>   -5.7246    1.0000 </r>
       <r>   -5.6383    1.0000 </r>
       <r>   -5.6107    1.0000 </r>
       <r>   -5.5495    1.0000 </r>
       <r>   -5.5348    1.0000 </r>
       <r>   -5.5060    1.0000 </r>
       <r>   -5.4540    1.0000 </r>
       <r>   -5.4177    1.0000 </r>
       <r>   -5.3696    1.0000 </r>
       <r>   -5.3145    1.0000 </r>
       <r>   -5.0760    1.0000 </r>
       <r>   -4.9788    1.0000 </r>
       <r>   -4.8894    1.0000 </r>
       <r>   -4.8366    1.0000 </r>
       <r>   -4.7956    1.0000 </r>
       <r>   -4.7428    1.0000 </r>
       <r>   -4.6913    1.0000 </r>
       <r>   -4.6317    1.0000 </r>
       <r>   -4.5887    1.0000 </r>
       <r>   -4.4789    1.0000 </r>
       <r>   -4.4344    1.0000 </r>
       <r>   -4.1915    1.0000 </r>
       <r>   -4.1386    1.0000 </r>
       <r>   -4.0055    1.0000 </r>
       <r>   -3.7212    1.0000 </r>
       <r>   -3.6176    1.0000 </r>
       <r>   -3.5920    1.0000 </r>
       <r>   -3.5367    1.0000 </r>
       <r>   -3.5051    1.0000 </r>
       <r>   -3.4536    1.0000 </r>
       <r>   -3.3869    1.0000 </r>
       <r>   -3.3525    1.0000 </r>
       <r>   -3.2945    1.0000 </r>
       <r>   -3.2512    1.0000 </r>
       <r>   -3.1022    1.0000 </r>
       <r>   -2.8774    1.0000 </r>
       <r>   -2.8512    1.0000 </r>
       <r>   -2.7717    1.0000 </r>
       <r>   -2.7156    1.0000 </r>
       <r>   -2.6678    1.0000 </r>
       <r>   -2.4305    1.0000 </r>
       <r>   -2.3403    1.0000 </r>
       <r>   -2.3088    1.0000 </r>
       <r>   -2.2790    1.0000 </r>
       <r>   -2.2171    1.0000 </r>
       <r>   -2.1028    1.0000 </r>
       <r>   -1.9219    1.0000 </r>
       <r>   -1.8845    1.0000 </r>
       <r>   -1.6507    1.0000 </r>
       <r>    0.1649    0.0000 </r>
       <r>    0.2534    0.0000 </r>
       <r>    0.3243    0.0000 </r>
       <r>    0.3702    0.0000 </r>
       <r>    0.4948    0.0000 </r>
       <r>    0.5144    0.0000 </r>
       <r>    0.5580    0.0000 </r>
       <r>    0.6209    0.0000 </r>
       <r>    0.7227    0.0000 </r>
       <r>    0.7446    0.0000 </r>
       <r>    0.8110    0.0000 </r>
       <r>    0.8898    0.0000 </r>
       <r>    0.8987    0.0000 </r>
       <r>    0.9831    0.0000 </r>
       <r>    1.0076    0.0000 </r>
       <r>    1.0376    0.0000 </r>
       <r>    1.1138    0.0000 </r>
       <r>    1.1331    0.0000 </r>
       <r>    1.2364    0.0000 </r>
       <r>    1.3279    0.0000 </r>
       <r>    1.4334    0.0000 </r>
       <r>    1.4590    0.0000 </r>
       <r>    1.5515    0.0000 </r>
      </set>
      <set comment="kpoint 4">
       <r>  -62.5043    1.0000 </r>
       <r>  -62.4820    1.0000 </r>
       <r>  -62.4682    1.0000 </r>
       <r>  -62.4622    1.0000 </r>
       <r>  -62.4552    1.0000 </r>
       <r>  -62.4472    1.0000 </r>
       <r>  -62.4453    1.0000 </r>
       <r>  -62.4429    1.0000 </r>
       <r>  -62.4370    1.0000 </r>
       <r>  -36.8181    1.0000 </r>
       <r>  -36.7880    1.0000 </r>
       <r>  -36.7673    1.0000 </r>
       <r>  -36.7580    1.0000 </r>
       <r>  -36.7461    1.0000 </r>
       <r>  -36.6642    1.0000 </r>
       <r>  -36.6484    1.0000 </r>
       <r>  -36.6262    1.0000 </r>
       <r>  -36.6176    1.0000 </r>
       <r>  -36.6136    1.0000 </r>
       <r>  -36.5927    1.0000 </r>
       <r>  -36.5909    1.0000 </r>
       <r>  -36.5824    1.0000 </r>
       <r>  -36.5790    1.0000 </r>
       <r>  -36.5746    1.0000 </r>
       <r>  -36.5626    1.0000 </r>
       <r>  -36.5567    1.0000 </r>
       <r>  -36.5552    1.0000 </r>
       <r>  -36.5475    1.0000 </r>
       <r>  -36.5439    1.0000 </r>
       <r>  -36.5284    1.0000 </r>
       <r>  -36.5233    1.0000 </r>
       <r>  -36.5113    1.0000 </r>
       <r>  -36.4997    1.0000 </r>
       <r>  -36.4764    1.0000 </r>
       <r>  -36.4463    1.0000 </r>
       <r>  -36.4379    1.0000 </r>
       <r>  -15.3869    1.0000 </r>
       <r>  -15.3843    1.0000 </r>
       <r>  -14.7476    1.0000 </r>
       <r>  -14.7340    1.0000 </r>
       <r>  -14.2800    1.0000 </r>
       <r>  -14.2372    1.0000 </r>
       <r>  -14.0718    1.0000 </r>
       <r>  -13.9983    1.0000 </r>
       <r>  -13.9930    1.0000 </r>
       <r>  -13.9421    1.0000 </r>
       <r>  -13.9174    1.0000 </r>
       <r>  -13.8633    1.0000 </r>
       <r>  -13.8135    1.0000 </r>
       <r>  -13.7389    1.0000 </r>
       <r>  -13.6560    1.0000 </r>
       <r>  -13.6151    1.0000 </r>
       <r>  -13.5784    1.0000 </r>
       <r>  -13.5142    1.0000 </r>
       <r>   -7.4462    1.0000 </r>
       <r>   -7.0772    1.0000 </r>
       <r>   -7.0208    1.0000 </r>
       <r>   -6.9616    1.0000 </r>
       <r>   -6.9447    1.0000 </r>
       <r>   -6.8957    1.0000 </r>
       <r>   -6.8685    1.0000 </r>
       <r>   -6.6831    1.0000 </r>
       <r>   -6.6348    1.0000 </r>
       <r>   -6.5688    1.0000 </r>
       <r>   -6.5559    1.0000 </r>
       <r>   -6.4837    1.0000 </r>
       <r>   -6.4275    1.0000 </r>
       <r>   -6.4137    1.0000 </r>
       <r>   -5.7329    1.0000 </r>
       <r>   -5.6216    1.0000 </r>
       <r>   -5.5678    1.0000 </r>
       <r>   -5.5340    1.0000 </r>
       <r>   -5.5300    1.0000 </r>
       <r>   -5.4888    1.0000 </r>
       <r>   -5.4299    1.0000 </r>
       <r>   -5.3840    1.0000 </r>
       <r>   -5.2638    1.0000 </r>
       <r>   -5.1382    1.0000 </r>
       <r>   -5.0963    1.0000 </r>
       <r>   -4.9739    1.0000 </r>
       <r>   -4.9147    1.0000 </r>
       <r>   -4.8828    1.0000 </r>
       <r>   -4.8069    1.0000 </r>
       <r>   -4.8034    1.0000 </r>
       <r>   -4.7607    1.0000 </r>
       <r>   -4.6697    1.0000 </r>
       <r>   -4.5601    1.0000 </r>
       <r>   -4.5001    1.0000 </r>
       <r>   -4.1101    1.0000 </r>
       <r>   -4.0648    1.0000 </r>
       <r>   -4.0190    1.0000 </r>
       <r>   -3.9737    1.0000 </r>
       <r>   -3.8899    1.0000 </r>
       <r>   -3.8497    1.0000 </r>
       <r>   -3.7652    1.0000 </r>
       <r>   -3.6593    1.0000 </r>
       <r>   -3.6142    1.0000 </r>
       <r>   -3.5142    1.0000 </r>
       <r>   -3.4462    1.0000 </r>
       <r>   -3.3907    1.0000 </r>
       <r>   -3.3176    1.0000 </r>
       <r>   -3.2554    1.0000 </r>
       <r>   -3.1226    1.0000 </r>
       <r>   -2.7897    1.0000 </r>
       <r>   -2.7674    1.0000 </r>
       <r>   -2.6834    1.0000 </r>
       <r>   -2.6525    1.0000 </r>
       <r>   -2.5967    1.0000 </r>
       <r>   -2.3878    1.0000 </r>
       <r>   -2.2992    1.0000 </r>
       <r>   -2.2083    1.0000 </r>
       <r>   -2.1858    1.0000 </r>
       <r>   -2.1601    1.0000 </r>
       <r>   -2.0458    1.0000 </r>
       <r>   -2.0157    1.0000 </r>
       <r>   -1.8422    1.0000 </r>
       <r>   -1.7972    1.0000 </r>
       <r>    0.1463    0.0000 </r>
       <r>    0.2698    0.0000 </r>
       <r>    0.3768    0.0000 </r>
       <r>    0.4773    0.0000 </r>
       <r>    0.5158    0.0000 </r>
       <r>    0.5600    0.0000 </r>
       <r>    0.5686    0.0000 </r>
       <r>    0.6443    0.0000 </r>
       <r>    0.7509    0.0000 </r>
       <r>    0.7880    0.0000 </r>
       <r>    0.8358    0.0000 </r>
       <r>    0.8675    0.0000 </r>
       <r>    0.9037    0.0000 </r>
       <r>    0.9493    0.0000 </r>
       <r>    0.9784    0.0000 </r>
       <r>    1.0601    0.0000 </r>
       <r>    1.0739    0.0000 </r>
       <r>    1.1055    0.0000 </r>
       <r>    1.1575    0.0000 </r>
       <r>    1.2105    0.0000 </r>
       <r>    1.2859    0.0000 </r>
       <r>    1.3186    0.0000 </r>
       <r>    1.5843    0.0000 </r>
      </set>
      <set comment="kpoint 5">
       <r>  -62.5051    1.0000 </r>
       <r>  -62.4823    1.0000 </r>
       <r>  -62.4657    1.0000 </r>
       <r>  -62.4598    1.0000 </r>
       <r>  -62.4561    1.0000 </r>
       <r>  -62.4500    1.0000 </r>
       <r>  -62.4468    1.0000 </r>
       <r>  -62.4421    1.0000 </r>
       <r>  -62.4363    1.0000 </r>
       <r>  -36.7826    1.0000 </r>
       <r>  -36.7670    1.0000 </r>
       <r>  -36.7489    1.0000 </r>
       <r>  -36.7346    1.0000 </r>
       <r>  -36.7205    1.0000 </r>
       <r>  -36.7020    1.0000 </r>
       <r>  -36.6743    1.0000 </r>
       <r>  -36.6627    1.0000 </r>
       <r>  -36.6549    1.0000 </r>
       <r>  -36.6443    1.0000 </r>
       <r>  -36.6325    1.0000 </r>
       <r>  -36.6018    1.0000 </r>
       <r>  -36.5923    1.0000 </r>
       <r>  -36.5840    1.0000 </r>
       <r>  -36.5794    1.0000 </r>
       <r>  -36.5733    1.0000 </r>
       <r>  -36.5625    1.0000 </r>
       <r>  -36.5553    1.0000 </r>
       <r>  -36.5433    1.0000 </r>
       <r>  -36.5221    1.0000 </r>
       <r>  -36.5120    1.0000 </r>
       <r>  -36.5016    1.0000 </r>
       <r>  -36.4942    1.0000 </r>
       <r>  -36.4793    1.0000 </r>
       <r>  -36.4708    1.0000 </r>
       <r>  -36.4390    1.0000 </r>
       <r>  -36.4209    1.0000 </r>
       <r>  -15.7322    1.0000 </r>
       <r>  -14.8082    1.0000 </r>
       <r>  -14.6488    1.0000 </r>
       <r>  -14.6111    1.0000 </r>
       <r>  -14.4152    1.0000 </r>
       <r>  -14.3069    1.0000 </r>
       <r>  -14.2767    1.0000 </r>
       <r>  -14.1930    1.0000 </r>
       <r>  -14.0168    1.0000 </r>
       <r>  -13.9652    1.0000 </r>
       <r>  -13.9200    1.0000 </r>
       <r>  -13.8543    1.0000 </r>
       <r>  -13.7818    1.0000 </r>
       <r>  -13.7406    1.0000 </r>
       <r>  -13.6525    1.0000 </r>
       <r>  -13.6099    1.0000 </r>
       <r>  -13.5402    1.0000 </r>
       <r>  -13.4258    1.0000 </r>
       <r>   -7.2800    1.0000 </r>
       <r>   -7.2096    1.0000 </r>
       <r>   -7.1363    1.0000 </r>
       <r>   -7.0460    1.0000 </r>
       <r>   -6.9926    1.0000 </r>
       <r>   -6.9035    1.0000 </r>
       <r>   -6.7771    1.0000 </r>
       <r>   -6.7573    1.0000 </r>
       <r>   -6.6970    1.0000 </r>
       <r>   -6.5750    1.0000 </r>
       <r>   -6.4568    1.0000 </r>
       <r>   -6.1633    1.0000 </r>
       <r>   -6.0449    1.0000 </r>
       <r>   -6.0161    1.0000 </r>
       <r>   -5.7694    1.0000 </r>
       <r>   -5.7462    1.0000 </r>
       <r>   -5.6810    1.0000 </r>
       <r>   -5.5910    1.0000 </r>
       <r>   -5.5654    1.0000 </r>
       <r>   -5.5401    1.0000 </r>
       <r>   -5.5070    1.0000 </r>
       <r>   -5.4854    1.0000 </r>
       <r>   -5.4711    1.0000 </r>
       <r>   -5.4077    1.0000 </r>
       <r>   -5.3480    1.0000 </r>
       <r>   -5.0894    1.0000 </r>
       <r>   -5.0696    1.0000 </r>
       <r>   -4.7734    1.0000 </r>
       <r>   -4.7469    1.0000 </r>
       <r>   -4.7232    1.0000 </r>
       <r>   -4.6045    1.0000 </r>
       <r>   -4.5606    1.0000 </r>
       <r>   -4.5044    1.0000 </r>
       <r>   -4.4479    1.0000 </r>
       <r>   -4.3546    1.0000 </r>
       <r>   -4.2618    1.0000 </r>
       <r>   -4.1805    1.0000 </r>
       <r>   -3.8035    1.0000 </r>
       <r>   -3.7490    1.0000 </r>
       <r>   -3.6227    1.0000 </r>
       <r>   -3.4421    1.0000 </r>
       <r>   -3.4031    1.0000 </r>
       <r>   -3.3606    1.0000 </r>
       <r>   -3.3027    1.0000 </r>
       <r>   -3.2738    1.0000 </r>
       <r>   -3.2418    1.0000 </r>
       <r>   -3.2253    1.0000 </r>
       <r>   -3.1438    1.0000 </r>
       <r>   -3.1141    1.0000 </r>
       <r>   -3.0237    1.0000 </r>
       <r>   -2.9580    1.0000 </r>
       <r>   -2.9302    1.0000 </r>
       <r>   -2.8868    1.0000 </r>
       <r>   -2.7317    1.0000 </r>
       <r>   -2.5512    1.0000 </r>
       <r>   -2.5013    1.0000 </r>
       <r>   -2.4257    1.0000 </r>
       <r>   -2.3902    1.0000 </r>
       <r>   -2.3595    1.0000 </r>
       <r>   -2.3328    1.0000 </r>
       <r>   -1.7591    1.0000 </r>
       <r>   -1.7023    1.0000 </r>
       <r>   -1.5702    1.0000 </r>
       <r>    0.0485    0.0000 </r>
       <r>    0.0699    0.0000 </r>
       <r>    0.3370    0.0000 </r>
       <r>    0.3687    0.0000 </r>
       <r>    0.4531    0.0000 </r>
       <r>    0.4925    0.0000 </r>
       <r>    0.5462    0.0000 </r>
       <r>    0.5834    0.0000 </r>
       <r>    0.6405    0.0000 </r>
       <r>    0.6804    0.0000 </r>
       <r>    0.7871    0.0000 </r>
       <r>    0.8010    0.0000 </r>
       <r>    0.8580    0.0000 </r>
       <r>    0.9733    0.0000 </r>
       <r>    1.0146    0.0000 </r>
       <r>    1.1442    0.0000 </r>
       <r>    1.2147    0.0000 </r>
       <r>    1.2794    0.0000 </r>
       <r>    1.4120    0.0000 </r>
       <r>    1.4732    0.0000 </r>
       <r>    1.5520    0.0000 </r>
       <r>    1.5795    0.0000 </r>
       <r>    1.6352    0.0000 </r>
      </set>
      <set comment="kpoint 6">
       <r>  -62.5047    1.0000 </r>
       <r>  -62.4825    1.0000 </r>
       <r>  -62.4652    1.0000 </r>
       <r>  -62.4629    1.0000 </r>
       <r>  -62.4551    1.0000 </r>
       <r>  -62.4493    1.0000 </r>
       <r>  -62.4453    1.0000 </r>
       <r>  -62.4427    1.0000 </r>
       <r>  -62.4365    1.0000 </r>
       <r>  -36.7982    1.0000 </r>
       <r>  -36.7861    1.0000 </r>
       <r>  -36.7682    1.0000 </r>
       <r>  -36.7357    1.0000 </r>
       <r>  -36.7209    1.0000 </r>
       <r>  -36.7108    1.0000 </r>
       <r>  -36.6407    1.0000 </r>
       <r>  -36.6361    1.0000 </r>
       <r>  -36.6313    1.0000 </r>
       <r>  -36.6274    1.0000 </r>
       <r>  -36.6167    1.0000 </r>
       <r>  -36.6043    1.0000 </r>
       <r>  -36.5945    1.0000 </r>
       <r>  -36.5850    1.0000 </r>
       <r>  -36.5753    1.0000 </r>
       <r>  -36.5706    1.0000 </r>
       <r>  -36.5606    1.0000 </r>
       <r>  -36.5555    1.0000 </r>
       <r>  -36.5443    1.0000 </r>
       <r>  -36.5294    1.0000 </r>
       <r>  -36.5257    1.0000 </r>
       <r>  -36.5111    1.0000 </r>
       <r>  -36.5005    1.0000 </r>
       <r>  -36.4763    1.0000 </r>
       <r>  -36.4728    1.0000 </r>
       <r>  -36.4526    1.0000 </r>
       <r>  -36.4256    1.0000 </r>
       <r>  -15.6421    1.0000 </r>
       <r>  -14.9509    1.0000 </r>
       <r>  -14.9157    1.0000 </r>
       <r>  -14.4881    1.0000 </r>
       <r>  -14.3997    1.0000 </r>
       <r>  -14.2809    1.0000 </r>
       <r>  -14.1360    1.0000 </r>
       <r>  -14.0960    1.0000 </r>
       <r>  -14.0357    1.0000 </r>
       <r>  -13.9902    1.0000 </r>
       <r>  -13.8855    1.0000 </r>
       <r>  -13.8375    1.0000 </r>
       <r>  -13.7875    1.0000 </r>
       <r>  -13.7005    1.0000 </r>
       <r>  -13.6896    1.0000 </r>
       <r>  -13.6225    1.0000 </r>
       <r>  -13.5676    1.0000 </r>
       <r>  -13.4598    1.0000 </r>
       <r>   -7.3006    1.0000 </r>
       <r>   -7.2507    1.0000 </r>
       <r>   -7.1404    1.0000 </r>
       <r>   -6.9816    1.0000 </r>
       <r>   -6.9077    1.0000 </r>
       <r>   -6.8443    1.0000 </r>
       <r>   -6.7934    1.0000 </r>
       <r>   -6.7383    1.0000 </r>
       <r>   -6.6752    1.0000 </r>
       <r>   -6.6521    1.0000 </r>
       <r>   -6.6113    1.0000 </r>
       <r>   -6.3081    1.0000 </r>
       <r>   -6.2523    1.0000 </r>
       <r>   -5.9596    1.0000 </r>
       <r>   -5.9311    1.0000 </r>
       <r>   -5.6713    1.0000 </r>
       <r>   -5.6150    1.0000 </r>
       <r>   -5.5899    1.0000 </r>
       <r>   -5.5260    1.0000 </r>
       <r>   -5.5118    1.0000 </r>
       <r>   -5.4680    1.0000 </r>
       <r>   -5.4538    1.0000 </r>
       <r>   -5.3496    1.0000 </r>
       <r>   -5.2355    1.0000 </r>
       <r>   -5.2052    1.0000 </r>
       <r>   -4.9595    1.0000 </r>
       <r>   -4.9250    1.0000 </r>
       <r>   -4.8555    1.0000 </r>
       <r>   -4.8114    1.0000 </r>
       <r>   -4.7657    1.0000 </r>
       <r>   -4.6678    1.0000 </r>
       <r>   -4.6337    1.0000 </r>
       <r>   -4.5497    1.0000 </r>
       <r>   -4.5013    1.0000 </r>
       <r>   -4.3414    1.0000 </r>
       <r>   -4.2245    1.0000 </r>
       <r>   -4.1792    1.0000 </r>
       <r>   -4.0485    1.0000 </r>
       <r>   -3.6610    1.0000 </r>
       <r>   -3.5982    1.0000 </r>
       <r>   -3.5593    1.0000 </r>
       <r>   -3.5334    1.0000 </r>
       <r>   -3.4869    1.0000 </r>
       <r>   -3.4104    1.0000 </r>
       <r>   -3.3595    1.0000 </r>
       <r>   -3.3377    1.0000 </r>
       <r>   -3.2667    1.0000 </r>
       <r>   -3.0722    1.0000 </r>
       <r>   -3.0294    1.0000 </r>
       <r>   -2.9492    1.0000 </r>
       <r>   -2.9046    1.0000 </r>
       <r>   -2.8304    1.0000 </r>
       <r>   -2.7798    1.0000 </r>
       <r>   -2.7495    1.0000 </r>
       <r>   -2.4516    1.0000 </r>
       <r>   -2.4170    1.0000 </r>
       <r>   -2.3181    1.0000 </r>
       <r>   -2.2721    1.0000 </r>
       <r>   -2.2368    1.0000 </r>
       <r>   -2.1993    1.0000 </r>
       <r>   -1.9029    1.0000 </r>
       <r>   -1.8044    1.0000 </r>
       <r>   -1.6244    1.0000 </r>
       <r>    0.1795    0.0000 </r>
       <r>    0.2310    0.0000 </r>
       <r>    0.3260    0.0000 </r>
       <r>    0.3362    0.0000 </r>
       <r>    0.4504    0.0000 </r>
       <r>    0.4748    0.0000 </r>
       <r>    0.5673    0.0000 </r>
       <r>    0.5907    0.0000 </r>
       <r>    0.6986    0.0000 </r>
       <r>    0.7404    0.0000 </r>
       <r>    0.8198    0.0000 </r>
       <r>    0.8561    0.0000 </r>
       <r>    0.9137    0.0000 </r>
       <r>    0.9701    0.0000 </r>
       <r>    1.0176    0.0000 </r>
       <r>    1.0629    0.0000 </r>
       <r>    1.0995    0.0000 </r>
       <r>    1.2104    0.0000 </r>
       <r>    1.2728    0.0000 </r>
       <r>    1.3738    0.0000 </r>
       <r>    1.4255    0.0000 </r>
       <r>    1.5147    0.0000 </r>
       <r>    1.5952    0.0000 </r>
      </set>
      <set comment="kpoint 7">
       <r>  -62.5043    1.0000 </r>
       <r>  -62.4820    1.0000 </r>
       <r>  -62.4678    1.0000 </r>
       <r>  -62.4627    1.0000 </r>
       <r>  -62.4546    1.0000 </r>
       <r>  -62.4477    1.0000 </r>
       <r>  -62.4451    1.0000 </r>
       <r>  -62.4430    1.0000 </r>
       <r>  -62.4369    1.0000 </r>
       <r>  -36.8140    1.0000 </r>
       <r>  -36.7941    1.0000 </r>
       <r>  -36.7795    1.0000 </r>
       <r>  -36.7427    1.0000 </r>
       <r>  -36.7342    1.0000 </r>
       <r>  -36.6963    1.0000 </r>
       <r>  -36.6280    1.0000 </r>
       <r>  -36.6242    1.0000 </r>
       <r>  -36.6163    1.0000 </r>
       <r>  -36.6101    1.0000 </r>
       <r>  -36.5967    1.0000 </r>
       <r>  -36.5891    1.0000 </r>
       <r>  -36.5852    1.0000 </r>
       <r>  -36.5768    1.0000 </r>
       <r>  -36.5715    1.0000 </r>
       <r>  -36.5684    1.0000 </r>
       <r>  -36.5584    1.0000 </r>
       <r>  -36.5542    1.0000 </r>
       <r>  -36.5463    1.0000 </r>
       <r>  -36.5457    1.0000 </r>
       <r>  -36.5348    1.0000 </r>
       <r>  -36.5228    1.0000 </r>
       <r>  -36.5110    1.0000 </r>
       <r>  -36.4973    1.0000 </r>
       <r>  -36.4699    1.0000 </r>
       <r>  -36.4544    1.0000 </r>
       <r>  -36.4343    1.0000 </r>
       <r>  -15.4690    1.0000 </r>
       <r>  -15.2268    1.0000 </r>
       <r>  -15.0017    1.0000 </r>
       <r>  -14.4817    1.0000 </r>
       <r>  -14.3015    1.0000 </r>
       <r>  -14.1926    1.0000 </r>
       <r>  -14.1555    1.0000 </r>
       <r>  -14.0906    1.0000 </r>
       <r>  -13.9751    1.0000 </r>
       <r>  -13.9523    1.0000 </r>
       <r>  -13.8917    1.0000 </r>
       <r>  -13.8234    1.0000 </r>
       <r>  -13.7995    1.0000 </r>
       <r>  -13.7406    1.0000 </r>
       <r>  -13.6651    1.0000 </r>
       <r>  -13.6217    1.0000 </r>
       <r>  -13.5756    1.0000 </r>
       <r>  -13.5077    1.0000 </r>
       <r>   -7.3884    1.0000 </r>
       <r>   -7.2255    1.0000 </r>
       <r>   -7.0486    1.0000 </r>
       <r>   -6.9809    1.0000 </r>
       <r>   -6.8813    1.0000 </r>
       <r>   -6.8475    1.0000 </r>
       <r>   -6.7828    1.0000 </r>
       <r>   -6.7436    1.0000 </r>
       <r>   -6.6972    1.0000 </r>
       <r>   -6.6227    1.0000 </r>
       <r>   -6.5300    1.0000 </r>
       <r>   -6.4388    1.0000 </r>
       <r>   -6.4164    1.0000 </r>
       <r>   -6.2520    1.0000 </r>
       <r>   -5.8696    1.0000 </r>
       <r>   -5.6994    1.0000 </r>
       <r>   -5.6269    1.0000 </r>
       <r>   -5.6064    1.0000 </r>
       <r>   -5.4891    1.0000 </r>
       <r>   -5.4373    1.0000 </r>
       <r>   -5.3967    1.0000 </r>
       <r>   -5.3450    1.0000 </r>
       <r>   -5.2776    1.0000 </r>
       <r>   -5.0956    1.0000 </r>
       <r>   -5.0229    1.0000 </r>
       <r>   -4.9857    1.0000 </r>
       <r>   -4.9319    1.0000 </r>
       <r>   -4.8648    1.0000 </r>
       <r>   -4.8173    1.0000 </r>
       <r>   -4.7872    1.0000 </r>
       <r>   -4.7371    1.0000 </r>
       <r>   -4.6443    1.0000 </r>
       <r>   -4.5106    1.0000 </r>
       <r>   -4.4397    1.0000 </r>
       <r>   -4.3673    1.0000 </r>
       <r>   -4.1512    1.0000 </r>
       <r>   -4.0582    1.0000 </r>
       <r>   -4.0103    1.0000 </r>
       <r>   -3.8577    1.0000 </r>
       <r>   -3.7813    1.0000 </r>
       <r>   -3.7118    1.0000 </r>
       <r>   -3.6751    1.0000 </r>
       <r>   -3.5363    1.0000 </r>
       <r>   -3.4968    1.0000 </r>
       <r>   -3.4434    1.0000 </r>
       <r>   -3.3990    1.0000 </r>
       <r>   -3.3227    1.0000 </r>
       <r>   -3.1777    1.0000 </r>
       <r>   -3.0467    1.0000 </r>
       <r>   -2.8850    1.0000 </r>
       <r>   -2.8490    1.0000 </r>
       <r>   -2.7285    1.0000 </r>
       <r>   -2.6572    1.0000 </r>
       <r>   -2.5807    1.0000 </r>
       <r>   -2.3747    1.0000 </r>
       <r>   -2.3154    1.0000 </r>
       <r>   -2.2253    1.0000 </r>
       <r>   -2.1705    1.0000 </r>
       <r>   -2.1435    1.0000 </r>
       <r>   -2.0489    1.0000 </r>
       <r>   -1.9772    1.0000 </r>
       <r>   -1.8735    1.0000 </r>
       <r>   -1.7501    1.0000 </r>
       <r>    0.2084    0.0000 </r>
       <r>    0.2925    0.0000 </r>
       <r>    0.4063    0.0000 </r>
       <r>    0.4295    0.0000 </r>
       <r>    0.4972    0.0000 </r>
       <r>    0.5393    0.0000 </r>
       <r>    0.5684    0.0000 </r>
       <r>    0.6193    0.0000 </r>
       <r>    0.7191    0.0000 </r>
       <r>    0.7753    0.0000 </r>
       <r>    0.8014    0.0000 </r>
       <r>    0.8472    0.0000 </r>
       <r>    0.8712    0.0000 </r>
       <r>    0.9307    0.0000 </r>
       <r>    0.9965    0.0000 </r>
       <r>    1.0172    0.0000 </r>
       <r>    1.0700    0.0000 </r>
       <r>    1.1113    0.0000 </r>
       <r>    1.1591    0.0000 </r>
       <r>    1.2063    0.0000 </r>
       <r>    1.3699    0.0000 </r>
       <r>    1.4288    0.0000 </r>
       <r>    1.5021    0.0000 </r>
      </set>
      <set comment="kpoint 8">
       <r>  -62.5043    1.0000 </r>
       <r>  -62.4814    1.0000 </r>
       <r>  -62.4697    1.0000 </r>
       <r>  -62.4612    1.0000 </r>
       <r>  -62.4550    1.0000 </r>
       <r>  -62.4473    1.0000 </r>
       <r>  -62.4453    1.0000 </r>
       <r>  -62.4428    1.0000 </r>
       <r>  -62.4371    1.0000 </r>
       <r>  -36.8149    1.0000 </r>
       <r>  -36.7929    1.0000 </r>
       <r>  -36.7785    1.0000 </r>
       <r>  -36.7442    1.0000 </r>
       <r>  -36.7340    1.0000 </r>
       <r>  -36.6952    1.0000 </r>
       <r>  -36.6325    1.0000 </r>
       <r>  -36.6240    1.0000 </r>
       <r>  -36.6137    1.0000 </r>
       <r>  -36.6082    1.0000 </r>
       <r>  -36.5970    1.0000 </r>
       <r>  -36.5899    1.0000 </r>
       <r>  -36.5860    1.0000 </r>
       <r>  -36.5810    1.0000 </r>
       <r>  -36.5717    1.0000 </r>
       <r>  -36.5652    1.0000 </r>
       <r>  -36.5603    1.0000 </r>
       <r>  -36.5553    1.0000 </r>
       <r>  -36.5475    1.0000 </r>
       <r>  -36.5419    1.0000 </r>
       <r>  -36.5311    1.0000 </r>
       <r>  -36.5231    1.0000 </r>
       <r>  -36.5091    1.0000 </r>
       <r>  -36.5024    1.0000 </r>
       <r>  -36.4692    1.0000 </r>
       <r>  -36.4471    1.0000 </r>
       <r>  -36.4405    1.0000 </r>
       <r>  -15.4697    1.0000 </r>
       <r>  -15.2271    1.0000 </r>
       <r>  -15.0026    1.0000 </r>
       <r>  -14.4770    1.0000 </r>
       <r>  -14.2890    1.0000 </r>
       <r>  -14.2138    1.0000 </r>
       <r>  -14.1256    1.0000 </r>
       <r>  -14.1052    1.0000 </r>
       <r>  -13.9941    1.0000 </r>
       <r>  -13.9405    1.0000 </r>
       <r>  -13.8963    1.0000 </r>
       <r>  -13.8299    1.0000 </r>
       <r>  -13.8032    1.0000 </r>
       <r>  -13.7347    1.0000 </r>
       <r>  -13.6661    1.0000 </r>
       <r>  -13.6025    1.0000 </r>
       <r>  -13.5876    1.0000 </r>
       <r>  -13.5070    1.0000 </r>
       <r>   -7.3878    1.0000 </r>
       <r>   -7.2033    1.0000 </r>
       <r>   -7.0754    1.0000 </r>
       <r>   -6.9730    1.0000 </r>
       <r>   -6.9027    1.0000 </r>
       <r>   -6.8359    1.0000 </r>
       <r>   -6.7804    1.0000 </r>
       <r>   -6.7386    1.0000 </r>
       <r>   -6.6824    1.0000 </r>
       <r>   -6.5992    1.0000 </r>
       <r>   -6.5573    1.0000 </r>
       <r>   -6.4900    1.0000 </r>
       <r>   -6.4409    1.0000 </r>
       <r>   -6.1964    1.0000 </r>
       <r>   -5.8761    1.0000 </r>
       <r>   -5.7025    1.0000 </r>
       <r>   -5.6452    1.0000 </r>
       <r>   -5.5939    1.0000 </r>
       <r>   -5.4869    1.0000 </r>
       <r>   -5.4327    1.0000 </r>
       <r>   -5.3864    1.0000 </r>
       <r>   -5.3481    1.0000 </r>
       <r>   -5.2584    1.0000 </r>
       <r>   -5.1113    1.0000 </r>
       <r>   -5.0368    1.0000 </r>
       <r>   -4.9533    1.0000 </r>
       <r>   -4.9266    1.0000 </r>
       <r>   -4.8737    1.0000 </r>
       <r>   -4.8136    1.0000 </r>
       <r>   -4.7799    1.0000 </r>
       <r>   -4.7694    1.0000 </r>
       <r>   -4.6018    1.0000 </r>
       <r>   -4.5366    1.0000 </r>
       <r>   -4.4106    1.0000 </r>
       <r>   -4.3539    1.0000 </r>
       <r>   -4.1000    1.0000 </r>
       <r>   -4.0503    1.0000 </r>
       <r>   -4.0065    1.0000 </r>
       <r>   -3.8830    1.0000 </r>
       <r>   -3.8330    1.0000 </r>
       <r>   -3.7244    1.0000 </r>
       <r>   -3.6510    1.0000 </r>
       <r>   -3.5520    1.0000 </r>
       <r>   -3.5322    1.0000 </r>
       <r>   -3.4731    1.0000 </r>
       <r>   -3.4072    1.0000 </r>
       <r>   -3.3129    1.0000 </r>
       <r>   -3.1689    1.0000 </r>
       <r>   -3.0272    1.0000 </r>
       <r>   -2.8991    1.0000 </r>
       <r>   -2.8670    1.0000 </r>
       <r>   -2.7256    1.0000 </r>
       <r>   -2.6531    1.0000 </r>
       <r>   -2.5734    1.0000 </r>
       <r>   -2.3751    1.0000 </r>
       <r>   -2.3007    1.0000 </r>
       <r>   -2.2329    1.0000 </r>
       <r>   -2.1860    1.0000 </r>
       <r>   -2.1184    1.0000 </r>
       <r>   -2.0203    1.0000 </r>
       <r>   -1.9832    1.0000 </r>
       <r>   -1.9153    1.0000 </r>
       <r>   -1.7290    1.0000 </r>
       <r>    0.2003    0.0000 </r>
       <r>    0.2957    0.0000 </r>
       <r>    0.3888    0.0000 </r>
       <r>    0.4587    0.0000 </r>
       <r>    0.5053    0.0000 </r>
       <r>    0.5458    0.0000 </r>
       <r>    0.5704    0.0000 </r>
       <r>    0.6202    0.0000 </r>
       <r>    0.6854    0.0000 </r>
       <r>    0.7502    0.0000 </r>
       <r>    0.7913    0.0000 </r>
       <r>    0.8310    0.0000 </r>
       <r>    0.9003    0.0000 </r>
       <r>    0.9594    0.0000 </r>
       <r>    0.9735    0.0000 </r>
       <r>    1.0431    0.0000 </r>
       <r>    1.0542    0.0000 </r>
       <r>    1.0927    0.0000 </r>
       <r>    1.1809    0.0000 </r>
       <r>    1.2669    0.0000 </r>
       <r>    1.3199    0.0000 </r>
       <r>    1.4028    0.0000 </r>
       <r>    1.4936    0.0000 </r>
      </set>
      <set comment="kpoint 9">
       <r>  -62.5048    1.0000 </r>
       <r>  -62.4814    1.0000 </r>
       <r>  -62.4692    1.0000 </r>
       <r>  -62.4591    1.0000 </r>
       <r>  -62.4559    1.0000 </r>
       <r>  -62.4490    1.0000 </r>
       <r>  -62.4456    1.0000 </r>
       <r>  -62.4423    1.0000 </r>
       <r>  -62.4369    1.0000 </r>
       <r>  -36.8018    1.0000 </r>
       <r>  -36.7808    1.0000 </r>
       <r>  -36.7659    1.0000 </r>
       <r>  -36.7409    1.0000 </r>
       <r>  -36.7178    1.0000 </r>
       <r>  -36.7094    1.0000 </r>
       <r>  -36.6492    1.0000 </r>
       <r>  -36.6416    1.0000 </r>
       <r>  -36.6302    1.0000 </r>
       <r>  -36.6203    1.0000 </r>
       <r>  -36.6162    1.0000 </r>
       <r>  -36.6027    1.0000 </r>
       <r>  -36.5931    1.0000 </r>
       <r>  -36.5839    1.0000 </r>
       <r>  -36.5807    1.0000 </r>
       <r>  -36.5679    1.0000 </r>
       <r>  -36.5610    1.0000 </r>
       <r>  -36.5569    1.0000 </r>
       <r>  -36.5444    1.0000 </r>
       <r>  -36.5316    1.0000 </r>
       <r>  -36.5221    1.0000 </r>
       <r>  -36.5113    1.0000 </r>
       <r>  -36.4929    1.0000 </r>
[...]
       <r>   -5.3196    1.0000 </r>
       <r>   -5.2588    1.0000 </r>
       <r>   -5.1460    1.0000 </r>
       <r>   -5.0565    1.0000 </r>
       <r>   -5.0227    1.0000 </r>
       <r>   -4.9460    1.0000 </r>
       <r>   -4.8571    1.0000 </r>
       <r>   -4.8289    1.0000 </r>
       <r>   -4.7636    1.0000 </r>
       <r>   -4.7094    1.0000 </r>
       <r>   -4.6913    1.0000 </r>
       <r>   -4.5266    1.0000 </r>
       <r>   -4.4315    1.0000 </r>
       <r>   -4.1873    1.0000 </r>
       <r>   -4.0996    1.0000 </r>
       <r>   -4.0099    1.0000 </r>
       <r>   -3.9273    1.0000 </r>
       <r>   -3.8833    1.0000 </r>
       <r>   -3.8633    1.0000 </r>
       <r>   -3.7801    1.0000 </r>
       <r>   -3.6861    1.0000 </r>
       <r>   -3.6020    1.0000 </r>
       <r>   -3.5352    1.0000 </r>
       <r>   -3.4643    1.0000 </r>
       <r>   -3.3771    1.0000 </r>
       <r>   -3.3443    1.0000 </r>
       <r>   -3.3110    1.0000 </r>
       <r>   -3.1942    1.0000 </r>
       <r>   -2.8364    1.0000 </r>
       <r>   -2.7634    1.0000 </r>
       <r>   -2.6634    1.0000 </r>
       <r>   -2.6421    1.0000 </r>
       <r>   -2.6105    1.0000 </r>
       <r>   -2.4340    1.0000 </r>
       <r>   -2.3135    1.0000 </r>
       <r>   -2.1941    1.0000 </r>
       <r>   -2.1563    1.0000 </r>
       <r>   -2.1009    1.0000 </r>
       <r>   -2.0394    1.0000 </r>
       <r>   -2.0167    1.0000 </r>
       <r>   -1.8486    1.0000 </r>
       <r>   -1.7658    1.0000 </r>
       <r>    0.2154    0.0000 </r>
       <r>    0.2766    0.0000 </r>
       <r>    0.3983    0.0000 </r>
       <r>    0.4333    0.0000 </r>
       <r>    0.5079    0.0000 </r>
       <r>    0.5360    0.0000 </r>
       <r>    0.5579    0.0000 </r>
       <r>    0.5913    0.0000 </r>
       <r>    0.6520    0.0000 </r>
       <r>    0.7069    0.0000 </r>
       <r>    0.8619    0.0000 </r>
       <r>    0.8883    0.0000 </r>
       <r>    0.9286    0.0000 </r>
       <r>    0.9746    0.0000 </r>
       <r>    1.0159    0.0000 </r>
       <r>    1.0588    0.0000 </r>
       <r>    1.0670    0.0000 </r>
       <r>    1.1231    0.0000 </r>
       <r>    1.1461    0.0000 </r>
       <r>    1.1900    0.0000 </r>
       <r>    1.2966    0.0000 </r>
       <r>    1.3169    0.0000 </r>
       <r>    1.6351    0.0000 </r>
      </set>
     </set>
    </set>
   </array>
  </eigenvalues>
  <separator name="orbital magnetization" >
   <v name="MAGDIPOLOUT">      0.00000000      0.00000000      0.00000000</v>
  </separator>
  <dos>
   <i name="efermi">     -1.30036710 </i>
   <total>
    <array>
     <dimension dim="1">gridpoints</dimension>
     <dimension dim="2">spin</dimension>
     <field>energy</field>
     <field>total</field>
     <field>integrated</field>
     <set>
      <set comment="spin 1">
       <r>   -65.7203     0.0000     0.0000 </r>
       <r>   -65.4845     0.0000     0.0000 </r>
       <r>   -65.2488     0.0000     0.0000 </r>
       <r>   -65.0130     0.0000     0.0000 </r>
       <r>   -64.7772     0.0000     0.0000 </r>
       <r>   -64.5415     0.0000     0.0000 </r>
       <r>   -64.3057     0.0000     0.0000 </r>
       <r>   -64.0700     0.0000     0.0000 </r>
       <r>   -63.8342     0.0000     0.0000 </r>
       <r>   -63.5985     0.0000     0.0000 </r>
       <r>   -63.3627     0.0000     0.0000 </r>
       <r>   -63.1270     0.0000     0.0000 </r>
       <r>   -62.8912     0.0000     0.0000 </r>
       <r>   -62.6555     0.0001     0.0000 </r>
       <r>   -62.4197    64.2577    15.1490 </r>
       <r>   -62.1839    12.0929    18.0000 </r>
       <r>   -61.9482     0.0000    18.0000 </r>
       <r>   -61.7124     0.0000    18.0000 </r>
       <r>   -61.4767     0.0000    18.0000 </r>
       <r>   -61.2409     0.0000    18.0000 </r>
       <r>   -61.0052     0.0000    18.0000 </r>
       <r>   -60.7694     0.0000    18.0000 </r>
       <r>   -60.5337     0.0000    18.0000 </r>
       <r>   -60.2979     0.0000    18.0000 </r>
       <r>   -60.0622     0.0000    18.0000 </r>
       <r>   -59.8264     0.0000    18.0000 </r>
       <r>   -59.5907     0.0000    18.0000 </r>
       <r>   -59.3549     0.0000    18.0000 </r>
       <r>   -59.1191     0.0000    18.0000 </r>
       <r>   -58.8834     0.0000    18.0000 </r>
       <r>   -58.6476     0.0000    18.0000 </r>
       <r>   -58.4119     0.0000    18.0000 </r>
       <r>   -58.1761     0.0000    18.0000 </r>
       <r>   -57.9404     0.0000    18.0000 </r>
       <r>   -57.7046     0.0000    18.0000 </r>
       <r>   -57.4689     0.0000    18.0000 </r>
       <r>   -57.2331     0.0000    18.0000 </r>
       <r>   -56.9974     0.0000    18.0000 </r>
       <r>   -56.7616     0.0000    18.0000 </r>
       <r>   -56.5258     0.0000    18.0000 </r>
       <r>   -56.2901     0.0000    18.0000 </r>
       <r>   -56.0543     0.0000    18.0000 </r>
       <r>   -55.8186     0.0000    18.0000 </r>
       <r>   -55.5828     0.0000    18.0000 </r>
       <r>   -55.3471     0.0000    18.0000 </r>
       <r>   -55.1113     0.0000    18.0000 </r>
       <r>   -54.8756     0.0000    18.0000 </r>
       <r>   -54.6398     0.0000    18.0000 </r>
       <r>   -54.4041     0.0000    18.0000 </r>
       <r>   -54.1683     0.0000    18.0000 </r>
       <r>   -53.9325     0.0000    18.0000 </r>
       <r>   -53.6968     0.0000    18.0000 </r>
       <r>   -53.4610     0.0000    18.0000 </r>
       <r>   -53.2253     0.0000    18.0000 </r>
       <r>   -52.9895     0.0000    18.0000 </r>
       <r>   -52.7538     0.0000    18.0000 </r>
       <r>   -52.5180     0.0000    18.0000 </r>
       <r>   -52.2823     0.0000    18.0000 </r>
       <r>   -52.0465     0.0000    18.0000 </r>
       <r>   -51.8108     0.0000    18.0000 </r>
       <r>   -51.5750     0.0000    18.0000 </r>
       <r>   -51.3392     0.0000    18.0000 </r>
       <r>   -51.1035     0.0000    18.0000 </r>
       <r>   -50.8677     0.0000    18.0000 </r>
       <r>   -50.6320     0.0000    18.0000 </r>
       <r>   -50.3962     0.0000    18.0000 </r>
       <r>   -50.1605     0.0000    18.0000 </r>
       <r>   -49.9247     0.0000    18.0000 </r>
       <r>   -49.6890     0.0000    18.0000 </r>
       <r>   -49.4532     0.0000    18.0000 </r>
       <r>   -49.2175     0.0000    18.0000 </r>
       <r>   -48.9817     0.0000    18.0000 </r>
       <r>   -48.7459     0.0000    18.0000 </r>
       <r>   -48.5102     0.0000    18.0000 </r>
       <r>   -48.2744     0.0000    18.0000 </r>
       <r>   -48.0387     0.0000    18.0000 </r>
       <r>   -47.8029     0.0000    18.0000 </r>
       <r>   -47.5672     0.0000    18.0000 </r>
       <r>   -47.3314     0.0000    18.0000 </r>
       <r>   -47.0957     0.0000    18.0000 </r>
       <r>   -46.8599     0.0000    18.0000 </r>
       <r>   -46.6242     0.0000    18.0000 </r>
       <r>   -46.3884     0.0000    18.0000 </r>
       <r>   -46.1526     0.0000    18.0000 </r>
       <r>   -45.9169     0.0000    18.0000 </r>
       <r>   -45.6811     0.0000    18.0000 </r>
       <r>   -45.4454     0.0000    18.0000 </r>
       <r>   -45.2096     0.0000    18.0000 </r>
       <r>   -44.9739     0.0000    18.0000 </r>
       <r>   -44.7381     0.0000    18.0000 </r>
       <r>   -44.5024     0.0000    18.0000 </r>
       <r>   -44.2666     0.0000    18.0000 </r>
       <r>   -44.0309     0.0000    18.0000 </r>
       <r>   -43.7951     0.0000    18.0000 </r>
       <r>   -43.5593     0.0000    18.0000 </r>
       <r>   -43.3236     0.0000    18.0000 </r>
       <r>   -43.0878     0.0000    18.0000 </r>
       <r>   -42.8521     0.0000    18.0000 </r>
       <r>   -42.6163     0.0000    18.0000 </r>
       <r>   -42.3806     0.0000    18.0000 </r>
       <r>   -42.1448     0.0000    18.0000 </r>
       <r>   -41.9091     0.0000    18.0000 </r>
       <r>   -41.6733     0.0000    18.0000 </r>
       <r>   -41.4376     0.0000    18.0000 </r>
       <r>   -41.2018     0.0000    18.0000 </r>
       <r>   -40.9661     0.0000    18.0000 </r>
       <r>   -40.7303     0.0000    18.0000 </r>
       <r>   -40.4945     0.0000    18.0000 </r>
       <r>   -40.2588     0.0000    18.0000 </r>
       <r>   -40.0230     0.0000    18.0000 </r>
       <r>   -39.7873     0.0000    18.0000 </r>
       <r>   -39.5515     0.0000    18.0000 </r>
       <r>   -39.3158     0.0000    18.0000 </r>
       <r>   -39.0800     0.0000    18.0000 </r>
       <r>   -38.8443     0.0000    18.0000 </r>
       <r>   -38.6085     0.0000    18.0000 </r>
       <r>   -38.3728     0.0000    18.0000 </r>
       <r>   -38.1370     0.0000    18.0000 </r>
       <r>   -37.9012     0.0000    18.0000 </r>
       <r>   -37.6655     0.0000    18.0000 </r>
       <r>   -37.4297     0.0000    18.0000 </r>
       <r>   -37.1940     0.0000    18.0000 </r>
       <r>   -36.9582     0.0001    18.0000 </r>
       <r>   -36.7225    37.4381    26.8262 </r>
       <r>   -36.4867   159.2362    64.3669 </r>
       <r>   -36.2510    32.3775    72.0000 </r>
       <r>   -36.0152     0.0000    72.0000 </r>
       <r>   -35.7795     0.0000    72.0000 </r>
       <r>   -35.5437     0.0000    72.0000 </r>
       <r>   -35.3079     0.0000    72.0000 </r>
       <r>   -35.0722     0.0000    72.0000 </r>
       <r>   -34.8364     0.0000    72.0000 </r>
       <r>   -34.6007     0.0000    72.0000 </r>
       <r>   -34.3649     0.0000    72.0000 </r>
       <r>   -34.1292     0.0000    72.0000 </r>
       <r>   -33.8934     0.0000    72.0000 </r>
       <r>   -33.6577     0.0000    72.0000 </r>
       <r>   -33.4219     0.0000    72.0000 </r>
       <r>   -33.1862     0.0000    72.0000 </r>
       <r>   -32.9504     0.0000    72.0000 </r>
       <r>   -32.7146     0.0000    72.0000 </r>
       <r>   -32.4789     0.0000    72.0000 </r>
       <r>   -32.2431     0.0000    72.0000 </r>
       <r>   -32.0074     0.0000    72.0000 </r>
       <r>   -31.7716     0.0000    72.0000 </r>
       <r>   -31.5359     0.0000    72.0000 </r>
       <r>   -31.3001     0.0000    72.0000 </r>
       <r>   -31.0644     0.0000    72.0000 </r>
       <r>   -30.8286     0.0000    72.0000 </r>
       <r>   -30.5929     0.0000    72.0000 </r>
       <r>   -30.3571     0.0000    72.0000 </r>
       <r>   -30.1213     0.0000    72.0000 </r>
       <r>   -29.8856     0.0000    72.0000 </r>
       <r>   -29.6498     0.0000    72.0000 </r>
       <r>   -29.4141     0.0000    72.0000 </r>
       <r>   -29.1783     0.0000    72.0000 </r>
       <r>   -28.9426     0.0000    72.0000 </r>
       <r>   -28.7068     0.0000    72.0000 </r>
       <r>   -28.4711     0.0000    72.0000 </r>
       <r>   -28.2353     0.0000    72.0000 </r>
       <r>   -27.9996     0.0000    72.0000 </r>
       <r>   -27.7638     0.0000    72.0000 </r>
       <r>   -27.5280     0.0000    72.0000 </r>
       <r>   -27.2923     0.0000    72.0000 </r>
       <r>   -27.0565     0.0000    72.0000 </r>
       <r>   -26.8208     0.0000    72.0000 </r>
       <r>   -26.5850     0.0000    72.0000 </r>
       <r>   -26.3493     0.0000    72.0000 </r>
       <r>   -26.1135     0.0000    72.0000 </r>
       <r>   -25.8778     0.0000    72.0000 </r>
       <r>   -25.6420     0.0000    72.0000 </r>
       <r>   -25.4063     0.0000    72.0000 </r>
       <r>   -25.1705     0.0000    72.0000 </r>
       <r>   -24.9347     0.0000    72.0000 </r>
       <r>   -24.6990     0.0000    72.0000 </r>
       <r>   -24.4632     0.0000    72.0000 </r>
       <r>   -24.2275     0.0000    72.0000 </r>
       <r>   -23.9917     0.0000    72.0000 </r>
       <r>   -23.7560     0.0000    72.0000 </r>
       <r>   -23.5202     0.0000    72.0000 </r>
       <r>   -23.2845     0.0000    72.0000 </r>
       <r>   -23.0487     0.0000    72.0000 </r>
       <r>   -22.8130     0.0000    72.0000 </r>
       <r>   -22.5772     0.0000    72.0000 </r>
       <r>   -22.3415     0.0000    72.0000 </r>
       <r>   -22.1057     0.0000    72.0000 </r>
       <r>   -21.8699     0.0000    72.0000 </r>
       <r>   -21.6342     0.0000    72.0000 </r>
       <r>   -21.3984     0.0000    72.0000 </r>
       <r>   -21.1627     0.0000    72.0000 </r>
       <r>   -20.9269     0.0000    72.0000 </r>
       <r>   -20.6912     0.0000    72.0000 </r>
       <r>   -20.4554     0.0000    72.0000 </r>
       <r>   -20.2197     0.0000    72.0000 </r>
       <r>   -19.9839     0.0000    72.0000 </r>
       <r>   -19.7482     0.0000    72.0000 </r>
       <r>   -19.5124     0.0000    72.0000 </r>
       <r>   -19.2766     0.0000    72.0000 </r>
       <r>   -19.0409     0.0000    72.0000 </r>
       <r>   -18.8051     0.0000    72.0000 </r>
       <r>   -18.5694     0.0000    72.0000 </r>
       <r>   -18.3336     0.0000    72.0000 </r>
       <r>   -18.0979     0.0000    72.0000 </r>
       <r>   -17.8621     0.0000    72.0000 </r>
       <r>   -17.6264     0.0000    72.0000 </r>
       <r>   -17.3906     0.0000    72.0000 </r>
       <r>   -17.1549     0.0000    72.0000 </r>
       <r>   -16.9191     0.0000    72.0000 </r>
       <r>   -16.6833     0.0000    72.0000 </r>
       <r>   -16.4476     0.0000    72.0000 </r>
       <r>   -16.2118     0.0000    72.0000 </r>
       <r>   -15.9761     0.0000    72.0000 </r>
       <r>   -15.7403     0.7846    72.1850 </r>
       <r>   -15.5046     4.1742    73.1691 </r>
       <r>   -15.2688     4.7493    74.2887 </r>
       <r>   -15.0331     5.2031    75.5154 </r>
       <r>   -14.7973     6.2675    76.9930 </r>
       <r>   -14.5616     7.3627    78.7288 </r>
       <r>   -14.3258    11.7303    81.4943 </r>
       <r>   -14.0900    23.6410    87.0677 </r>
       <r>   -13.8543    31.8682    94.5808 </r>
       <r>   -13.6185    36.0078   103.0698 </r>
       <r>   -13.3828    20.6688   107.9426 </r>
       <r>   -13.1470     0.2437   108.0000 </r>
       <r>   -12.9113     0.0000   108.0000 </r>
       <r>   -12.6755     0.0000   108.0000 </r>
       <r>   -12.4398     0.0000   108.0000 </r>
       <r>   -12.2040     0.0000   108.0000 </r>
       <r>   -11.9683     0.0000   108.0000 </r>
       <r>   -11.7325     0.0000   108.0000 </r>
       <r>   -11.4967     0.0000   108.0000 </r>
       <r>   -11.2610     0.0000   108.0000 </r>
       <r>   -11.0252     0.0000   108.0000 </r>
       <r>   -10.7895     0.0000   108.0000 </r>
       <r>   -10.5537     0.0000   108.0000 </r>
       <r>   -10.3180     0.0000   108.0000 </r>
       <r>   -10.0822     0.0000   108.0000 </r>
       <r>    -9.8465     0.0000   108.0000 </r>
       <r>    -9.6107     0.0000   108.0000 </r>
       <r>    -9.3750     0.0000   108.0000 </r>
       <r>    -9.1392     0.0000   108.0000 </r>
       <r>    -8.9034     0.0000   108.0000 </r>
       <r>    -8.6677     0.0000   108.0000 </r>
       <r>    -8.4319     0.0000   108.0000 </r>
       <r>    -8.1962     0.0000   108.0000 </r>
       <r>    -7.9604     0.0000   108.0000 </r>
       <r>    -7.7247     0.0000   108.0000 </r>
       <r>    -7.4889     0.0720   108.0170 </r>
       <r>    -7.2532     9.5750   110.2743 </r>
       <r>    -7.0174    18.7060   114.6843 </r>
       <r>    -6.7817    29.0759   121.5391 </r>
       <r>    -6.5459    31.4519   128.9541 </r>
       <r>    -6.3101    15.4785   132.6032 </r>
       <r>    -6.0744    10.6961   135.1248 </r>
       <r>    -5.8386     7.7267   136.9464 </r>
       <r>    -5.6029    22.5635   142.2659 </r>
       <r>    -5.3671    40.4568   151.8037 </r>
       <r>    -5.1314    19.1559   156.3198 </r>
       <r>    -4.8956    23.4186   161.8408 </r>
       <r>    -4.6599    34.2446   169.9141 </r>
       <r>    -4.4241    23.7482   175.5129 </r>
       <r>    -4.1884    15.3387   179.1290 </r>
       <r>    -3.9526    18.2406   183.4293 </r>
       <r>    -3.7169    16.3590   187.2861 </r>
       <r>    -3.4811    27.2796   193.7174 </r>
       <r>    -3.2453    34.3284   201.8104 </r>
       <r>    -3.0096    18.5498   206.1836 </r>
       <r>    -2.7738    22.5982   211.5112 </r>
       <r>    -2.5381    19.5717   216.1253 </r>
       <r>    -2.3023    22.6770   221.4715 </r>
       <r>    -2.0666    23.6118   227.0381 </r>
       <r>    -1.8308    16.4098   230.9068 </r>
       <r>    -1.5951    11.2709   233.5640 </r>
       <r>    -1.3593     1.8495   234.0000 </r>
       <r>    -1.1236     0.0000   234.0000 </r>
       <r>    -0.8878     0.0000   234.0000 </r>
       <r>    -0.6520     0.0000   234.0000 </r>
       <r>    -0.4163     0.0000   234.0000 </r>
       <r>    -0.1805     0.0001   234.0000 </r>
       <r>     0.0552     1.8073   234.4261 </r>
       <r>     0.2910    12.4617   237.3640 </r>
       <r>     0.5267    34.0245   245.3854 </r>
       <r>     0.7625    36.9317   254.0922 </r>
       <r>     0.9982    37.3902   262.9072 </r>
       <r>     1.2340    34.0249   270.9287 </r>
       <r>     1.4697    23.8213   276.5446 </r>
       <r>     1.7055    14.2237   279.8979 </r>
       <r>     1.9413     0.4329   280.0000 </r>
       <r>     2.1770     0.0000   280.0000 </r>
       <r>     2.4128     0.0000   280.0000 </r>
       <r>     2.6485     0.0000   280.0000 </r>
       <r>     2.8843     0.0000   280.0000 </r>
       <r>     3.1200     0.0000   280.0000 </r>
       <r>     3.3558     0.0000   280.0000 </r>
       <r>     3.5915     0.0000   280.0000 </r>
       <r>     3.8273     0.0000   280.0000 </r>
       <r>     4.0630     0.0000   280.0000 </r>
       <r>     4.2988     0.0000   280.0000 </r>
       <r>     4.5346     0.0000   280.0000 </r>
       <r>     4.7703     0.0000   280.0000 </r>
       <r>     5.0061     0.0000   280.0000 </r>
      </set>
     </set>
    </array>
   </total>
  </dos>
 </calculation>
 <structure name="finalpos" >
  <crystal>
   <varray name="basis" >
    <v>       9.55219900       0.00000000       0.00000000 </v>
    <v>      -4.77610000       8.27244700       0.00000000 </v>
    <v>       0.00000000       0.00000000      18.12711300 </v>
   </varray>
   <i name="volume">   1432.40555618 </i>
   <varray name="rec_basis" >
    <v>       0.10468794       0.06044161      -0.00000000 </v>
    <v>       0.00000000       0.12088322       0.00000000 </v>
    <v>       0.00000000      -0.00000000       0.05516598 </v>
   </varray>
  </crystal>
  <varray name="positions" >
   <v>       0.00363475       0.00662659       0.50107111 </v>
   <v>       0.33229786       0.32710370       0.50377354 </v>
   <v>       0.67049721       0.00523054       0.48827045 </v>
   <v>       0.32957909       0.99437320       0.49921284 </v>
   <v>       0.34296253       0.67064160       0.50393055 </v>
   <v>       0.66196191       0.32120243       0.49708894 </v>
   <v>       0.01492392       0.34940067       0.49661602 </v>
   <v>       0.66624265       0.66484711       0.50553876 </v>
   <v>       0.98273164       0.65897790       0.50525419 </v>
   <v>       0.54890805       0.09945461       0.58043140 </v>
   <v>       0.21418113       0.10727430       0.58749792 </v>
   <v>       0.22004002       0.10617806       0.41677155 </v>
   <v>       0.23443751       0.45394595       0.58569348 </v>
   <v>       0.23109202       0.44564471       0.41029648 </v>
   <v>       0.23034049       0.78068983       0.58500617 </v>
   <v>       0.20092329       0.76728555       0.41930037 </v>
   <v>       0.54588764       0.11197479       0.40487731 </v>
   <v>       0.54522356       0.76646396       0.41214575 </v>
   <v>       0.55913638       0.43885771       0.59170440 </v>
   <v>       0.56648105       0.79342175       0.58568611 </v>
   <v>       0.55487549       0.44180331       0.42320885 </v>
   <v>       0.88445085       0.12405815       0.57794062 </v>
   <v>       0.91559890       0.12767035       0.40737445 </v>
   <v>       0.89937788       0.44279431       0.58570847 </v>
   <v>       0.87865442       0.43999609       0.41877687 </v>
   <v>       0.89084225       0.78868718       0.58832039 </v>
   <v>       0.86509326       0.76857536       0.41699627 </v>
  </varray>
 </structure>
</modeling>
