<?xml version="1.0" encoding="ISO-8859-1"?>
<modeling>
 <generator>
  <i name="program" type="string">vasp </i>
  <i name="version" type="string">5.4.4.18Apr17-6-g9f103f2a35  </i>
  <i name="subversion" type="string">(build Oct  7 2019 15:10:45) complex            parallel </i>
  <i name="platform" type="string">LinuxGNU </i>
  <i name="date" type="string">2021 11 10 </i>
  <i name="time" type="string">20:15:44 </i>
 </generator>
 <incar>
  <i type="string" name="SYSTEM">mos2</i>
  <i type="int" name="ISTART">     0</i>
  <i type="string" name="PREC">accurate</i>
  <i type="string" name="ALGO"> Normal</i>
  <i type="int" name="NSIM">     4</i>
  <i type="int" name="NELM">  1000</i>
  <i type="int" name="NELMIN">     2</i>
  <i type="int" name="IBRION">    -1</i>
  <i name="EDIFF">      0.00000100</i>
  <i type="int" name="NSW">     0</i>
  <i name="ENCUT">    600.00000000</i>
  <i type="string" name="LREAL"> Auto</i>
  <i type="int" name="ISMEAR">     0</i>
  <i name="SIGMA">      0.05000000</i>
  <i type="logical" name="LWAVE"> F  </i>
  <i type="logical" name="LCHARG"> T  </i>
  <v type="int" name="KPOINT_BSE">    -1     0     0     0</v>
  <i type="int" name="NELM">  1000</i>
 </incar>
 <structure name="primitive_cell" >
  <crystal>
   <varray name="basis" >
    <v>       9.56424100       0.00000000       0.00000000 </v>
    <v>      -4.78212000       8.28287600       0.00000000 </v>
    <v>      -0.00000000       0.00000000      18.15827300 </v>
   </varray>
   <i name="volume">   1438.48789588 </i>
   <varray name="rec_basis" >
    <v>       0.10455613       0.06036550       0.00000000 </v>
    <v>       0.00000000       0.12073101      -0.00000000 </v>
    <v>       0.00000000      -0.00000000       0.05507132 </v>
   </varray>
  </crystal>
  <varray name="positions" >
   <v>       0.03146162       0.02650678       0.49662503 </v>
   <v>       0.22931054       0.11689162      -0.41468439 </v>
   <v>      -0.22114825      -0.11546491       0.43518671 </v>
   <v>       0.11082185       0.22803339       0.40238364 </v>
   <v>       0.12540297      -0.10474816       0.40803360 </v>
   <v>      -0.11264953      -0.20776783      -0.41712943 </v>
   <v>      -0.12761817       0.09083888      -0.41350708 </v>
   <v>      -0.01896755       0.29530039       0.49885432 </v>
   <v>       0.31565156       0.35584964       0.49789945 </v>
   <v>      -0.01481117      -0.31146798      -0.49829450 </v>
   <v>       0.31879851      -0.03593390      -0.49960727 </v>
   <v>       0.44119157       0.21524549       0.43604156 </v>
   <v>      -0.35652785       0.01275354       0.49996442 </v>
   <v>      -0.36544103      -0.37657860       0.49838974 </v>
   <v>       0.22377231       0.45532804      -0.41253293 </v>
   <v>      -0.21632992       0.22160778       0.40823906 </v>
   <v>       0.21300455      -0.23562897      -0.41281313 </v>
   <v>      -0.42360771      -0.21812746      -0.41663716 </v>
   <v>      -0.20837539      -0.43290260       0.41262263 </v>
   <v>      -0.45779227       0.41881770      -0.41478063 </v>
   <v>       0.11198929      -0.45464517       0.43444615 </v>
   <v>       0.43905075      -0.44452943       0.40587252 </v>
   <v>      -0.44616912       0.11538301      -0.41350664 </v>
   <v>      -0.08625706       0.45013537      -0.41245405 </v>
   <v>       0.44808658      -0.10752105       0.40485925 </v>
   <v>      -0.29011270       0.34184464      -0.49977000 </v>
   <v>       0.36568270      -0.30524829       0.49937465 </v>
  </varray>
 </structure>
 <varray name="primitive_index" >
  <v type="int" >        1 </v>
  <v type="int" >       11 </v>
  <v type="int" >       27 </v>
  <v type="int" >       12 </v>
  <v type="int" >       16 </v>
  <v type="int" >       26 </v>
  <v type="int" >       22 </v>
  <v type="int" >        7 </v>
  <v type="int" >        2 </v>
  <v type="int" >        9 </v>
  <v type="int" >        4 </v>
  <v type="int" >       17 </v>
  <v type="int" >        3 </v>
  <v type="int" >        8 </v>
  <v type="int" >       13 </v>
  <v type="int" >       23 </v>
  <v type="int" >       15 </v>
  <v type="int" >       20 </v>
  <v type="int" >       25 </v>
  <v type="int" >       19 </v>
  <v type="int" >       14 </v>
  <v type="int" >       21 </v>
  <v type="int" >       10 </v>
  <v type="int" >       24 </v>
  <v type="int" >       18 </v>
  <v type="int" >        6 </v>
  <v type="int" >        5 </v>
 </varray>
 <kpoints>
  <generation param="Gamma">
   <v type="int" name="divisions">       6        6        1 </v>
   <v name="usershift">      0.00000000       0.00000000       0.00000000 </v>
   <v name="genvec1">      0.16666667       0.00000000       0.00000000 </v>
   <v name="genvec2">      0.00000000       0.16666667       0.00000000 </v>
   <v name="genvec3">      0.00000000       0.00000000       1.00000000 </v>
   <v name="shift">      0.00000000       0.00000000       0.00000000 </v>
  </generation>
  <varray name="kpointlist" >
   <v>       0.00000000       0.00000000       0.00000000 </v>
   <v>       0.16666667       0.00000000       0.00000000 </v>
   <v>       0.33333333       0.00000000       0.00000000 </v>
   <v>       0.50000000       0.00000000       0.00000000 </v>
   <v>       0.00000000       0.16666667       0.00000000 </v>
   <v>       0.16666667       0.16666667       0.00000000 </v>
   <v>       0.33333333       0.16666667       0.00000000 </v>
   <v>       0.50000000       0.16666667       0.00000000 </v>
   <v>      -0.33333333       0.16666667       0.00000000 </v>
   <v>      -0.16666667       0.16666667       0.00000000 </v>
   <v>       0.00000000       0.33333333       0.00000000 </v>
   <v>       0.16666667       0.33333333       0.00000000 </v>
   <v>       0.33333333       0.33333333       0.00000000 </v>
   <v>       0.50000000       0.33333333       0.00000000 </v>
   <v>      -0.33333333       0.33333333       0.00000000 </v>
   <v>      -0.16666667       0.33333333       0.00000000 </v>
   <v>       0.00000000       0.50000000       0.00000000 </v>
   <v>       0.16666667       0.50000000       0.00000000 </v>
   <v>       0.33333333       0.50000000       0.00000000 </v>
   <v>       0.50000000       0.50000000       0.00000000 </v>
  </varray>
  <varray name="weights" >
   <v>       0.02777778 </v>
   <v>       0.05555556 </v>
   <v>       0.05555556 </v>
   <v>       0.02777778 </v>
   <v>       0.05555556 </v>
   <v>       0.05555556 </v>
   <v>       0.05555556 </v>
   <v>       0.05555556 </v>
   <v>       0.05555556 </v>
   <v>       0.05555556 </v>
   <v>       0.05555556 </v>
   <v>       0.05555556 </v>
   <v>       0.05555556 </v>
   <v>       0.05555556 </v>
   <v>       0.05555556 </v>
   <v>       0.05555556 </v>
   <v>       0.02777778 </v>
   <v>       0.05555556 </v>
   <v>       0.05555556 </v>
   <v>       0.02777778 </v>
  </varray>
 </kpoints>
 <parameters>
  <separator name="general" >
   <i type="string" name="SYSTEM">mos2</i>
   <i type="logical" name="LCOMPAT"> F  </i>
  </separator>
  <separator name="electronic" >
   <i type="string" name="PREC">accura</i>
   <i name="ENMAX">    600.00000000</i>
   <i name="ENAUG">    446.01400000</i>
   <i name="EDIFF">      0.00000100</i>
   <i type="int" name="IALGO">    38</i>
   <i type="int" name="IWAVPR">    10</i>
   <i type="int" name="NBANDS">   140</i>
   <i name="NELECT">    234.00000000</i>
   <i type="int" name="TURBO">     0</i>
   <i type="int" name="IRESTART">     0</i>
   <i type="int" name="NREBOOT">     0</i>
   <i type="int" name="NMIN">     0</i>
   <i name="EREF">      0.00000000</i>
   <separator name="electronic smearing" >
    <i type="int" name="ISMEAR">     0</i>
    <i name="SIGMA">      0.05000000</i>
    <i name="KSPACING">      0.50000000</i>
    <i type="logical" name="KGAMMA"> T  </i>
   </separator>
   <separator name="electronic projectors" >
    <i type="logical" name="LREAL"> T  </i>
    <v name="ROPT">     -0.00025000     -0.00025000</v>
    <i type="int" name="LMAXPAW">  -100</i>
    <i type="int" name="LMAXMIX">     2</i>
    <i type="logical" name="NLSPLINE"> F  </i>
   </separator>
   <separator name="electronic startup" >
    <i type="int" name="ISTART">     0</i>
    <i type="int" name="ICHARG">     2</i>
    <i type="int" name="INIWAV">     1</i>
   </separator>
   <separator name="electronic spin" >
    <i type="int" name="ISPIN">     1</i>
    <i type="logical" name="LNONCOLLINEAR"> F  </i>
    <v name="MAGMOM">      1.00000000      1.00000000      1.00000000      1.00000000      1.00000000      1.00000000      1.00000000      1.00000000      1.00000000      1.00000000      1.00000000      1.00000000      1.00000000      1.00000000      1.00000000      1.00000000      1.00000000      1.00000000      1.00000000      1.00000000
      1.00000000      1.00000000      1.00000000      1.00000000      1.00000000      1.00000000      1.00000000</v>
    <i name="NUPDOWN">     -1.00000000</i>
    <i type="logical" name="LSORBIT"> F  </i>
    <v name="SAXIS">      0.00000000      0.00000000      1.00000000</v>
    <i type="logical" name="LSPIRAL"> F  </i>
    <v name="QSPIRAL">      0.00000000      0.00000000      0.00000000</v>
    <i type="logical" name="LZEROZ"> F  </i>
   </separator>
   <separator name="electronic exchange-correlation" >
    <i type="logical" name="LASPH"> F  </i>
    <i type="logical" name="LMETAGGA"> F  </i>
   </separator>
   <separator name="electronic convergence" >
    <i type="int" name="NELM">  1000</i>
    <i type="int" name="NELMDL">    -5</i>
    <i type="int" name="NELMIN">     2</i>
    <i name="ENINI">    600.00000000</i>
    <separator name="electronic convergence detail" >
     <i type="logical" name="LDIAG"> T  </i>
     <i type="logical" name="LSUBROT"> F  </i>
     <i name="WEIMIN">      0.00000000</i>
     <i name="EBREAK">      0.00000000</i>
     <i name="DEPER">      0.30000000</i>
     <i type="int" name="NRMM">     4</i>
     <i name="TIME">      0.40000000</i>
    </separator>
   </separator>
   <separator name="electronic mixer" >
    <i name="AMIX">      0.40000000</i>
    <i name="BMIX">      1.00000000</i>
    <i name="AMIN">      0.10000000</i>
    <i name="AMIX_MAG">      1.60000000</i>
    <i name="BMIX_MAG">      1.00000000</i>
    <separator name="electronic mixer details" >
     <i type="int" name="IMIX">     4</i>
     <i type="logical" name="MIXFIRST"> F  </i>
     <i type="int" name="MAXMIX">   -45</i>
     <i name="WC">    100.00000000</i>
     <i type="int" name="INIMIX">     1</i>
     <i type="int" name="MIXPRE">     1</i>
     <i type="int" name="MREMOVE">     5</i>
    </separator>
   </separator>
   <separator name="electronic dipolcorrection" >
    <i type="logical" name="LDIPOL"> F  </i>
    <i type="logical" name="LMONO"> F  </i>
    <i type="int" name="IDIPOL">     0</i>
    <i name="EPSILON">      1.00000000</i>
    <v name="DIPOL">   -100.00000000   -100.00000000   -100.00000000</v>
    <i name="EFIELD">      0.00000000</i>
   </separator>
  </separator>
  <separator name="grids" >
   <i type="int" name="NGX">    80</i>
   <i type="int" name="NGY">    80</i>
   <i type="int" name="NGZ">   150</i>
   <i type="int" name="NGXF">   160</i>
   <i type="int" name="NGYF">   160</i>
   <i type="int" name="NGZF">   300</i>
   <i type="logical" name="ADDGRID"> F  </i>
  </separator>
  <separator name="ionic" >
   <i type="int" name="NSW">     0</i>
   <i type="int" name="IBRION">    -1</i>
   <i type="int" name="MDALGO">     0</i>
   <i type="int" name="ISIF">     2</i>
   <i name="PSTRESS">      0.00000000</i>
   <i name="EDIFFG">      0.00001000</i>
   <i type="int" name="NFREE">     0</i>
   <i name="POTIM">      0.50000000</i>
   <i name="SMASS">     -3.00000000</i>
   <i name="SCALEE">      1.00000000</i>
  </separator>
  <separator name="ionic md" >
   <i name="TEBEG">      0.00010000</i>
   <i name="TEEND">      0.00010000</i>
   <i type="int" name="NBLOCK">     1</i>
   <i type="int" name="KBLOCK">     1</i>
   <i type="int" name="NPACO">   256</i>
   <i name="APACO">     16.00000000</i>
  </separator>
  <separator name="symmetry" >
   <i type="int" name="ISYM">     2</i>
   <i name="SYMPREC">      0.00001000</i>
  </separator>
  <separator name="dos" >
   <i type="int" name="LORBIT">     0</i>
   <v name="RWIGS">     -1.00000000     -1.00000000</v>
   <i type="int" name="NEDOS">   301</i>
   <i name="EMIN">     10.00000000</i>
   <i name="EMAX">    -10.00000000</i>
   <i name="EFERMI">      0.00000000</i>
  </separator>
  <separator name="writing" >
   <i type="int" name="NWRITE">     2</i>
   <i type="logical" name="LWAVE"> F  </i>
   <i type="logical" name="LDOWNSAMPLE"> F  </i>
   <i type="logical" name="LCHARG"> T  </i>
   <i type="logical" name="LPARD"> F  </i>
   <i type="logical" name="LVTOT"> F  </i>
   <i type="logical" name="LVHAR"> F  </i>
   <i type="logical" name="LELF"> F  </i>
   <i type="logical" name="LOPTICS"> F  </i>
   <v name="STM">      0.00000000      0.00000000      0.00000000      0.00000000      0.00000000      0.00000000      0.00000000</v>
  </separator>
  <separator name="performance" >
   <i type="int" name="NPAR">     4</i>
   <i type="int" name="NSIM">     4</i>
   <i type="int" name="NBLK">    -1</i>
   <i type="logical" name="LPLANE"> T  </i>
   <i type="logical" name="LSCALAPACK"> T  </i>
   <i type="logical" name="LSCAAWARE"> F  </i>
   <i type="logical" name="LSCALU"> F  </i>
   <i type="logical" name="LASYNC"> F  </i>
   <i type="logical" name="LORBITALREAL"> F  </i>
  </separator>
  <separator name="miscellaneous" >
   <i type="int" name="IDIOT">     3</i>
   <i type="int" name="ISPECIAL">     0</i>
   <i type="logical" name="LMUSIC"> F  </i>
   <v name="POMASS">     95.94000000     32.06600000</v>
   <v name="DARWINR">      0.00000000      0.00000000</v>
   <v name="DARWINV">      1.00000000      1.00000000</v>
   <i type="logical" name="LCORR"> T  </i>
  </separator>
  <i type="logical" name="GGA_COMPAT"> T  </i>
  <i type="logical" name="LBERRY"> F  </i>
  <i type="int" name="ICORELEVEL">     0</i>
  <i type="logical" name="LDAU"> F  </i>
  <i type="int" name="I_CONSTRAINED_M">     0</i>
  <separator name="electronic exchange-correlation" >
   <i type="string" name="GGA">--</i>
   <i type="int" name="VOSKOWN">     0</i>
   <i type="logical" name="LHFCALC"> F  </i>
   <i type="string" name="PRECFOCK"></i>
   <i type="logical" name="LSYMGRAD"> F  </i>
   <i type="logical" name="LHFONE"> F  </i>
   <i type="logical" name="LRHFCALC"> F  </i>
   <i type="logical" name="LTHOMAS"> F  </i>
   <i type="logical" name="LMODELHF"> F  </i>
   <i name="ENCUT4O">     -1.00000000</i>
   <i type="int" name="EXXOEP">     0</i>
   <i type="int" name="FOURORBIT">     0</i>
   <i name="AEXX">      0.00000000</i>
   <i name="HFALPHA">      0.00000000</i>
   <i name="MCALPHA">      0.00000000</i>
   <i name="ALDAX">      1.00000000</i>
   <i name="AGGAX">      1.00000000</i>
   <i name="ALDAC">      1.00000000</i>
   <i name="AGGAC">      1.00000000</i>
   <i type="int" name="NKREDX">     1</i>
   <i type="int" name="NKREDY">     1</i>
   <i type="int" name="NKREDZ">     1</i>
   <i type="logical" name="SHIFTRED"> F  </i>
   <i type="logical" name="ODDONLY"> F  </i>
   <i type="logical" name="EVENONLY"> F  </i>
   <i type="int" name="LMAXFOCK">     0</i>
   <i type="int" name="NMAXFOCKAE">     0</i>
   <i type="logical" name="LFOCKAEDFT"> F  </i>
   <i name="HFSCREEN">      0.00000000</i>
   <i name="HFSCREENC">      0.00000000</i>
   <i type="int" name="NBANDSGWLOW">     0</i>
  </separator>
  <separator name="vdW DFT" >
   <i type="logical" name="LUSE_VDW"> F  </i>
   <i name="Zab_VDW">     -0.84910000</i>
   <i name="PARAM1">      0.12340000</i>
   <i name="PARAM2">      1.00000000</i>
   <i name="PARAM3">      0.00000000</i>
  </separator>
  <separator name="model GW" >
   <i type="int" name="MODEL_GW">     0</i>
   <i name="MODEL_EPS0">     31.96639769</i>
   <i name="MODEL_ALPHA">      1.00000000</i>
  </separator>
  <separator name="linear response parameters" >
   <i type="logical" name="LEPSILON"> F  </i>
   <i type="logical" name="LRPA"> F  </i>
   <i type="logical" name="LNABLA"> F  </i>
   <i type="logical" name="LVEL"> F  </i>
   <i type="int" name="KINTER">     0</i>
   <i name="CSHIFT">      0.10000000</i>
   <i name="OMEGAMAX">     -1.00000000</i>
   <i name="DEG_THRESHOLD">      0.00200000</i>
   <i name="RTIME">     -0.10000000</i>
   <i name="WPLASMAI">      0.00000000</i>
   <v name="DFIELD">      0.00000000      0.00000000      0.00000000</v>
   <v name="WPLASMA">      0.00000000      0.00000000      0.00000000      0.00000000      0.00000000      0.00000000      0.00000000      0.00000000      0.00000000</v>
  </separator>
  <separator name="orbital magnetization" >
   <i type="logical" name="NUCIND"> F  </i>
   <v name="MAGPOS">      0.00000000      0.00000000      0.00000000</v>
   <i type="logical" name="LNICSALL"> T  </i>
   <i type="logical" name="ORBITALMAG"> F  </i>
   <i type="logical" name="LMAGBLOCH"> F  </i>
   <i type="logical" name="LCHIMAG"> F  </i>
   <i type="logical" name="LGAUGE"> T  </i>
   <i type="int" name="MAGATOM">     0</i>
   <v name="MAGDIPOL">      0.00000000      0.00000000      0.00000000</v>
   <v name="AVECCONST">      0.00000000      0.00000000      0.00000000</v>
  </separator>
  <separator name="response functions" >
   <i type="logical" name="LADDER"> F  </i>
   <i type="logical" name="LRPAFORCE"> F  </i>
   <i type="logical" name="LFXC"> F  </i>
   <i type="logical" name="LHARTREE"> T  </i>
   <i type="int" name="IBSE">     0</i>
   <v type="int" name="KPOINT">    -1     0     0     0</v>
   <i type="logical" name="LTCTE"> F  </i>
   <i type="logical" name="LTETE"> F  </i>
   <i type="logical" name="LTRIPLET"> F  </i>
   <i type="logical" name="LFXCEPS"> F  </i>
   <i type="logical" name="LFXHEG"> F  </i>
   <i type="int" name="NATURALO">     2</i>
   <i type="logical" name="L2ORDER"> F  </i>
   <i type="logical" name="LMP2LT"> F  </i>
   <i type="logical" name="LUSEW"> F  </i>
   <i name="ENCUTGW">     -2.00000000</i>
   <i name="ENCUTGWSOFT">     -2.00000000</i>
   <i name="ENCUTLF">     -1.00000000</i>
   <i type="int" name="LMAXMP2">    -1</i>
   <i name="SCISSOR">      0.00000000</i>
   <i type="int" name="NOMEGA">     0</i>
   <i type="int" name="NOMEGAR">     0</i>
   <i type="int" name="NBANDSGW">    -1</i>
   <i type="int" name="NBANDSO">    -1</i>
   <i type="int" name="NBANDSV">    -1</i>
   <i type="int" name="NELM">  1000</i>
   <i type="int" name="NELMHF">     1</i>
   <i type="int" name="DIM">     3</i>
   <i type="int" name="ANTIRES">     0</i>
   <i name="OMEGAMAX">    -30.00000000</i>
   <i name="OMEGAMIN">    -30.00000000</i>
   <i name="OMEGATL">   -200.00000000</i>
   <i type="int" name="OMEGAGRID">   140</i>
   <i name="CSHIFT">     -0.10000000</i>
   <i type="logical" name="SELFENERGY"> F  </i>
   <i type="logical" name="LSPECTRAL"> F  </i>
   <i type="logical" name="LSPECTRALGW"> F  </i>
   <i type="logical" name="LSINGLES"> F  </i>
   <i type="logical" name="LFERMIGW"> F  </i>
   <i type="logical" name="ODDONLYGW"> F  </i>
   <i type="logical" name="EVENONLYGW"> F  </i>
   <i type="int" name="NKREDLFX">     1</i>
   <i type="int" name="NKREDLFY">     1</i>
   <i type="int" name="NKREDLFZ">     1</i>
   <i type="int" name="MAXMEM">  2800</i>
   <i type="int" name="TELESCOPE">     0</i>
   <i type="int" name="TAUPAR">     1</i>
   <i type="int" name="OMEGAPAR">    -1</i>
   <i name="LAMBDA">      1.00000000</i>
  </separator>
  <separator name="External order field" >
   <i name="OFIELD_KAPPA">      0.00000000</i>
   <v name="OFIELD_K">      0.00000000      0.00000000      0.00000000</v>
   <i name="OFIELD_Q6_NEAR">      0.00000000</i>
   <i name="OFIELD_Q6_FAR">      0.00000000</i>
   <i name="OFIELD_A">      0.00000000</i>
  </separator>
 </parameters>
 <atominfo>
  <atoms>      27 </atoms>
  <types>       2 </types>
  <array name="atoms" >
   <dimension dim="1">ion</dimension>
   <field type="string">element</field>
   <field type="int">atomtype</field>
   <set>
    <rc><c>Mo</c><c>   1</c></rc>
    <rc><c>Mo</c><c>   1</c></rc>
    <rc><c>Mo</c><c>   1</c></rc>
    <rc><c>Mo</c><c>   1</c></rc>
    <rc><c>Mo</c><c>   1</c></rc>
    <rc><c>Mo</c><c>   1</c></rc>
    <rc><c>Mo</c><c>   1</c></rc>
    <rc><c>Mo</c><c>   1</c></rc>
    <rc><c>Mo</c><c>   1</c></rc>
    <rc><c>S </c><c>   2</c></rc>
    <rc><c>S </c><c>   2</c></rc>
    <rc><c>S </c><c>   2</c></rc>
    <rc><c>S </c><c>   2</c></rc>
    <rc><c>S </c><c>   2</c></rc>
    <rc><c>S </c><c>   2</c></rc>
    <rc><c>S </c><c>   2</c></rc>
    <rc><c>S </c><c>   2</c></rc>
    <rc><c>S </c><c>   2</c></rc>
    <rc><c>S </c><c>   2</c></rc>
    <rc><c>S </c><c>   2</c></rc>
    <rc><c>S </c><c>   2</c></rc>
    <rc><c>S </c><c>   2</c></rc>
    <rc><c>S </c><c>   2</c></rc>
    <rc><c>S </c><c>   2</c></rc>
    <rc><c>S </c><c>   2</c></rc>
    <rc><c>S </c><c>   2</c></rc>
    <rc><c>S </c><c>   2</c></rc>
   </set>
  </array>
  <array name="atomtypes" >
   <dimension dim="1">type</dimension>
   <field type="int">atomspertype</field>
   <field type="string">element</field>
   <field>mass</field>
   <field>valence</field>
   <field type="string">pseudopotential</field>
   <set>
    <rc><c>   9</c><c>Mo</c><c>     95.94000000</c><c>     14.00000000</c><c>  PAW_PBE Mo_sv 02Feb2006               </c></rc>
    <rc><c>  18</c><c>S </c><c>     32.06600000</c><c>      6.00000000</c><c>  PAW_PBE S 06Sep2000                   </c></rc>
   </set>
  </array>
 </atominfo>
 <structure name="initialpos" >
  <crystal>
   <varray name="basis" >
    <v>       9.56424100       0.00000000       0.00000000 </v>
    <v>      -4.78212000       8.28287600       0.00000000 </v>
    <v>      -0.00000000       0.00000000      18.15827300 </v>
   </varray>
   <i name="volume">   1438.48789588 </i>
   <varray name="rec_basis" >
    <v>       0.10455613       0.06036550       0.00000000 </v>
    <v>       0.00000000       0.12073101      -0.00000000 </v>
    <v>       0.00000000      -0.00000000       0.05507132 </v>
   </varray>
  </crystal>
  <varray name="positions" >
   <v>       0.03146162       0.02650678       0.49662503 </v>
   <v>       0.31565156       0.35584964       0.49789945 </v>
   <v>       0.64347215       0.01275354       0.49996442 </v>
   <v>       0.31879851       0.96406610       0.50039273 </v>
   <v>       0.36568270       0.69475171       0.49937465 </v>
   <v>       0.70988730       0.34184464       0.50023000 </v>
   <v>       0.98103245       0.29530039       0.49885432 </v>
   <v>       0.63455897       0.62342140       0.49838974 </v>
   <v>       0.98518883       0.68853202       0.50170550 </v>
   <v>       0.55383088       0.11538301       0.58649336 </v>
   <v>       0.22931054       0.11689162       0.58531561 </v>
   <v>       0.11082185       0.22803339       0.40238364 </v>
   <v>       0.22377231       0.45532804       0.58746707 </v>
   <v>       0.11198929       0.54535483       0.43444615 </v>
   <v>       0.21300455       0.76437103       0.58718687 </v>
   <v>       0.12540297       0.89525184       0.40803360 </v>
   <v>       0.44119157       0.21524549       0.43604156 </v>
   <v>       0.44808658       0.89247895       0.40485925 </v>
   <v>       0.54220773       0.41881770       0.58521937 </v>
   <v>       0.57639229       0.78187254       0.58336284 </v>
   <v>       0.43905075       0.55547057       0.40587252 </v>
   <v>       0.87238183       0.09083888       0.58649292 </v>
   <v>       0.78367008       0.22160778       0.40823906 </v>
   <v>       0.91374294       0.45013537       0.58754595 </v>
   <v>       0.79162461       0.56709740       0.41262263 </v>
   <v>       0.88735047       0.79223217       0.58287057 </v>
   <v>       0.77885175       0.88453509       0.43518671 </v>
  </varray>
 </structure>
 <calculation>
  <scstep>
   <time name="dav">   84.64   85.05</time>
   <time name="total">   85.21   85.63</time>
   <energy>
    <i name="alphaZ">    266.37941352 </i>
    <i name="ewald">  40722.22685519 </i>
    <i name="hartreedc"> -59772.39656054 </i>
    <i name="XCdc">    823.03363001 </i>
    <i name="pawpsdc">  17395.10119161 </i>
    <i name="pawaedc"> -17171.31696658 </i>
    <i name="eentropy">     -0.01953895 </i>
    <i name="bandstr">  -1774.84788299 </i>
    <i name="atom">  21743.34108040 </i>
    <i name="e_fr_energy">   2231.50122165 </i>
    <i name="e_wo_entrp">   2231.52076060 </i>
    <i name="e_0_energy">   2231.51099113 </i>
   </energy>
  </scstep>
  <scstep>
   <time name="dav">   91.19   91.64</time>
   <time name="total">   91.20   91.64</time>
   <energy>
    <i name="e_fr_energy">     15.30368780 </i>
    <i name="e_wo_entrp">     15.30427133 </i>
    <i name="e_0_energy">     15.30397957 </i>
   </energy>
  </scstep>
  <scstep>
   <time name="dav">   80.47   80.86</time>
   <time name="total">   80.47   80.86</time>
   <energy>
    <i name="e_fr_energy">   -194.88216741 </i>
    <i name="e_wo_entrp">   -194.88216741 </i>
    <i name="e_0_energy">   -194.88216741 </i>
   </energy>
  </scstep>
  <scstep>
   <time name="dav">   88.72   89.14</time>
   <time name="total">   88.72   89.14</time>
   <energy>
    <i name="e_fr_energy">   -203.15239021 </i>
    <i name="e_wo_entrp">   -203.15239021 </i>
    <i name="e_0_energy">   -203.15239021 </i>
   </energy>
  </scstep>
  <scstep>
   <time name="dav">   94.56   95.01</time>
   <time name="total">  101.04  101.50</time>
   <energy>
    <i name="e_fr_energy">   -203.42127698 </i>
    <i name="e_wo_entrp">   -203.42127698 </i>
    <i name="e_0_energy">   -203.42127698 </i>
   </energy>
  </scstep>
  <scstep>
   <time name="dav">   78.57   78.93</time>
   <time name="total">   85.57   85.94</time>
   <energy>
    <i name="e_fr_energy">   -194.26424864 </i>
    <i name="e_wo_entrp">   -194.26424864 </i>
    <i name="e_0_energy">   -194.26424864 </i>
   </energy>
  </scstep>
  <scstep>
   <time name="dav">   76.91   77.28</time>
   <time name="total">   83.86   84.25</time>
   <energy>
    <i name="e_fr_energy">   -193.15033198 </i>
    <i name="e_wo_entrp">   -193.15033198 </i>
    <i name="e_0_energy">   -193.15033198 </i>
   </energy>
  </scstep>
  <scstep>
   <time name="dav">   79.21   79.61</time>
   <time name="total">   86.14   86.57</time>
   <energy>
    <i name="e_fr_energy">   -190.61584443 </i>
    <i name="e_wo_entrp">   -190.61584443 </i>
    <i name="e_0_energy">   -190.61584443 </i>
   </energy>
  </scstep>
  <scstep>
   <time name="dav">   88.86   89.29</time>
   <time name="total">   95.78   96.23</time>
   <energy>
    <i name="e_fr_energy">   -190.49554825 </i>
    <i name="e_wo_entrp">   -190.49554825 </i>
    <i name="e_0_energy">   -190.49554825 </i>
   </energy>
  </scstep>
  <scstep>
   <time name="dav">   81.33   81.69</time>
   <time name="total">   88.22   88.61</time>
   <energy>
    <i name="e_fr_energy">   -190.42050942 </i>
    <i name="e_wo_entrp">   -190.42050942 </i>
    <i name="e_0_energy">   -190.42050942 </i>
   </energy>
  </scstep>
  <scstep>
   <time name="dav">   87.02   87.50</time>
   <time name="total">   93.88   94.39</time>
   <energy>
    <i name="e_fr_energy">   -190.39655343 </i>
    <i name="e_wo_entrp">   -190.39655343 </i>
    <i name="e_0_energy">   -190.39655343 </i>
   </energy>
  </scstep>
  <scstep>
   <time name="dav">   82.14   82.59</time>
   <time name="total">   88.92   89.40</time>
   <energy>
    <i name="e_fr_energy">   -190.39210819 </i>
    <i name="e_wo_entrp">   -190.39210819 </i>
    <i name="e_0_energy">   -190.39210819 </i>
   </energy>
  </scstep>
  <scstep>
   <time name="dav">   80.19   80.62</time>
   <time name="total">   86.95   87.41</time>
   <energy>
    <i name="e_fr_energy">   -190.38441321 </i>
    <i name="e_wo_entrp">   -190.38441321 </i>
    <i name="e_0_energy">   -190.38441321 </i>
   </energy>
  </scstep>
  <scstep>
   <time name="dav">   85.10   85.56</time>
   <time name="total">   91.85   92.34</time>
   <energy>
    <i name="e_fr_energy">   -190.38337830 </i>
    <i name="e_wo_entrp">   -190.38337830 </i>
    <i name="e_0_energy">   -190.38337830 </i>
   </energy>
  </scstep>
  <scstep>
   <time name="dav">   82.87   83.33</time>
   <time name="total">   89.63   90.13</time>
   <energy>
    <i name="e_fr_energy">   -190.38292455 </i>
    <i name="e_wo_entrp">   -190.38292455 </i>
    <i name="e_0_energy">   -190.38292455 </i>
   </energy>
  </scstep>
  <scstep>
   <time name="dav">   79.82   80.25</time>
   <time name="total">   86.55   87.02</time>
   <energy>
    <i name="e_fr_energy">   -190.38275729 </i>
    <i name="e_wo_entrp">   -190.38275729 </i>
    <i name="e_0_energy">   -190.38275729 </i>
   </energy>
  </scstep>
  <scstep>
   <time name="dav">   83.18   83.64</time>
   <time name="total">   89.94   90.43</time>
   <energy>
    <i name="e_fr_energy">   -190.38295553 </i>
    <i name="e_wo_entrp">   -190.38295553 </i>
    <i name="e_0_energy">   -190.38295553 </i>
   </energy>
  </scstep>
  <scstep>
   <time name="dav">   85.09   85.55</time>
   <time name="total">   91.85   92.33</time>
   <energy>
    <i name="e_fr_energy">   -190.38340261 </i>
    <i name="e_wo_entrp">   -190.38340261 </i>
    <i name="e_0_energy">   -190.38340261 </i>
   </energy>
  </scstep>
  <scstep>
   <time name="dav">   78.16   78.59</time>
   <time name="total">   84.91   85.37</time>
   <energy>
    <i name="e_fr_energy">   -190.38393491 </i>
    <i name="e_wo_entrp">   -190.38393491 </i>
    <i name="e_0_energy">   -190.38393491 </i>
   </energy>
  </scstep>
  <scstep>
   <time name="dav">   80.84   81.30</time>
   <time name="total">   87.59   88.08</time>
   <energy>
    <i name="e_fr_energy">   -190.38418413 </i>
    <i name="e_wo_entrp">   -190.38418413 </i>
    <i name="e_0_energy">   -190.38418413 </i>
   </energy>
  </scstep>
  <scstep>
   <time name="dav">   79.58   80.02</time>
   <time name="total">   86.36   86.83</time>
   <energy>
    <i name="e_fr_energy">   -190.38429240 </i>
    <i name="e_wo_entrp">   -190.38429240 </i>
    <i name="e_0_energy">   -190.38429240 </i>
   </energy>
  </scstep>
  <scstep>
   <time name="dav">   72.62   72.97</time>
   <time name="total">   79.43   79.80</time>
   <energy>
    <i name="e_fr_energy">   -190.38441410 </i>
    <i name="e_wo_entrp">   -190.38441410 </i>
    <i name="e_0_energy">   -190.38441410 </i>
   </energy>
  </scstep>
  <scstep>
   <time name="dav">   69.69   70.03</time>
   <time name="total">   76.48   76.84</time>
   <energy>
    <i name="e_fr_energy">   -190.38452299 </i>
    <i name="e_wo_entrp">   -190.38452299 </i>
    <i name="e_0_energy">   -190.38452299 </i>
   </energy>
  </scstep>
  <scstep>
   <time name="dav">   63.39   63.69</time>
   <time name="total">   70.15   70.48</time>
   <energy>
    <i name="e_fr_energy">   -190.38459308 </i>
    <i name="e_wo_entrp">   -190.38459308 </i>
    <i name="e_0_energy">   -190.38459308 </i>
   </energy>
  </scstep>
  <scstep>
   <time name="dav">   60.57   60.87</time>
   <time name="total">   67.32   67.64</time>
   <energy>
    <i name="e_fr_energy">   -190.38466920 </i>
    <i name="e_wo_entrp">   -190.38466920 </i>
    <i name="e_0_energy">   -190.38466920 </i>
   </energy>
  </scstep>
  <scstep>
   <time name="dav">   57.46   57.77</time>
   <time name="total">   64.21   64.54</time>
   <energy>
    <i name="e_fr_energy">   -190.38478208 </i>
    <i name="e_wo_entrp">   -190.38478208 </i>
    <i name="e_0_energy">   -190.38478208 </i>
   </energy>
  </scstep>
  <scstep>
   <time name="dav">   57.09   57.39</time>
   <time name="total">   63.83   64.16</time>
   <energy>
    <i name="e_fr_energy">   -190.38483615 </i>
    <i name="e_wo_entrp">   -190.38483615 </i>
    <i name="e_0_energy">   -190.38483615 </i>
   </energy>
  </scstep>
  <scstep>
   <time name="dav">   54.88   55.17</time>
   <time name="total">   61.60   61.91</time>
   <energy>
    <i name="e_fr_energy">   -190.38486470 </i>
    <i name="e_wo_entrp">   -190.38486470 </i>
    <i name="e_0_energy">   -190.38486470 </i>
   </energy>
  </scstep>
  <scstep>
   <time name="dav">   57.49   57.79</time>
   <time name="total">   64.21   64.54</time>
   <energy>
    <i name="e_fr_energy">   -190.38489649 </i>
    <i name="e_wo_entrp">   -190.38489649 </i>
    <i name="e_0_energy">   -190.38489649 </i>
   </energy>
  </scstep>
  <scstep>
   <time name="dav">   52.82   53.09</time>
   <time name="total">   59.55   59.84</time>
   <energy>
    <i name="e_fr_energy">   -190.38490791 </i>
    <i name="e_wo_entrp">   -190.38490791 </i>
    <i name="e_0_energy">   -190.38490791 </i>
   </energy>
  </scstep>
  <scstep>
   <time name="dav">   49.67   49.92</time>
   <time name="total">   56.43   56.71</time>
   <energy>
    <i name="e_fr_energy">   -190.38491262 </i>
    <i name="e_wo_entrp">   -190.38491262 </i>
    <i name="e_0_energy">   -190.38491262 </i>
   </energy>
  </scstep>
  <scstep>
   <time name="dav">   50.41   50.67</time>
   <time name="total">   57.20   57.49</time>
   <energy>
    <i name="e_fr_energy">   -190.38491536 </i>
    <i name="e_wo_entrp">   -190.38491536 </i>
    <i name="e_0_energy">   -190.38491536 </i>
   </energy>
  </scstep>
  <scstep>
   <time name="dav">   45.78   46.03</time>
   <time name="total">   46.30   46.55</time>
   <energy>
    <i name="alphaZ">    266.37941352 </i>
    <i name="ewald">  40722.22685519 </i>
    <i name="hartreedc"> -59760.50499031 </i>
    <i name="XCdc">    818.49265955 </i>
    <i name="pawpsdc">  26699.77981300 </i>
    <i name="pawaedc"> -26510.85421442 </i>
    <i name="eentropy">     -0.00000000 </i>
    <i name="bandstr">  -4169.24553259 </i>
    <i name="atom">  21743.34108040 </i>
    <i name="e_fr_energy">   -190.38491567 </i>
    <i name="e_wo_entrp">   -190.38491567 </i>
    <i name="e_0_energy">   -190.38491567 </i>
   </energy>
  </scstep>
  <structure>
   <crystal>
    <varray name="basis" >
     <v>       9.56424100       0.00000000       0.00000000 </v>
     <v>      -4.78212000       8.28287600       0.00000000 </v>
     <v>      -0.00000000       0.00000000      18.15827300 </v>
    </varray>
    <i name="volume">   1438.48789588 </i>
    <varray name="rec_basis" >
     <v>       0.10455613       0.06036550       0.00000000 </v>
     <v>       0.00000000       0.12073101      -0.00000000 </v>
     <v>       0.00000000      -0.00000000       0.05507132 </v>
    </varray>
   </crystal>
   <varray name="positions" >
    <v>       0.03146162       0.02650678       0.49662503 </v>
    <v>       0.31565156       0.35584964       0.49789945 </v>
    <v>       0.64347215       0.01275354       0.49996442 </v>
    <v>       0.31879851       0.96406610       0.50039273 </v>
    <v>       0.36568270       0.69475171       0.49937465 </v>
    <v>       0.70988730       0.34184464       0.50023000 </v>
    <v>       0.98103245       0.29530039       0.49885432 </v>
    <v>       0.63455897       0.62342140       0.49838974 </v>
    <v>       0.98518883       0.68853202       0.50170550 </v>
    <v>       0.55383088       0.11538301       0.58649336 </v>
    <v>       0.22931054       0.11689162       0.58531561 </v>
    <v>       0.11082185       0.22803339       0.40238364 </v>
    <v>       0.22377231       0.45532804       0.58746707 </v>
    <v>       0.11198929       0.54535483       0.43444615 </v>
    <v>       0.21300455       0.76437103       0.58718687 </v>
    <v>       0.12540297       0.89525184       0.40803360 </v>
    <v>       0.44119157       0.21524549       0.43604156 </v>
    <v>       0.44808658       0.89247895       0.40485925 </v>
    <v>       0.54220773       0.41881770       0.58521937 </v>
    <v>       0.57639229       0.78187254       0.58336284 </v>
    <v>       0.43905075       0.55547057       0.40587252 </v>
    <v>       0.87238183       0.09083888       0.58649292 </v>
    <v>       0.78367008       0.22160778       0.40823906 </v>
    <v>       0.91374294       0.45013537       0.58754595 </v>
    <v>       0.79162461       0.56709740       0.41262263 </v>
    <v>       0.88735047       0.79223217       0.58287057 </v>
    <v>       0.77885175       0.88453509       0.43518671 </v>
   </varray>
  </structure>
  <varray name="forces" >
   <v>       1.11671467      -0.52467940      -0.17344895 </v>
   <v>       0.27130297      -0.76487245      -0.01930636 </v>
   <v>       1.14320205       0.09125804      -0.99772771 </v>
   <v>      -0.23335836       0.23124682      -0.16645765 </v>
   <v>       1.09002651      -1.26111315      -0.26077961 </v>
   <v>      -1.52522212       1.11521908       0.14466678 </v>
   <v>       0.40123410      -0.06838504       0.45028381 </v>
   <v>       1.28775710       0.40050810       0.06341164 </v>
   <v>       1.02369727       0.02257961      -0.48309811 </v>
   <v>      -0.46608768       0.21208903       0.81738115 </v>
   <v>      -0.03930688      -0.00984196       0.06520461 </v>
   <v>       0.23945628      -0.15401870       0.65144669 </v>
   <v>      -0.10190594      -0.23941275      -0.05618584 </v>
   <v>      -0.77996554       1.09757974      -0.24739934 </v>
   <v>       0.43839894       0.12722596       0.57872617 </v>
   <v>      -0.92016446      -0.43927401       0.17088353 </v>
   <v>       0.32193285       1.05103085      -0.35251459 </v>
   <v>      -0.26470863      -0.07724502       0.29492707 </v>
   <v>       0.06941493       0.62119850      -0.09086517 </v>
   <v>      -0.96252154       0.07615475       0.60967246 </v>
   <v>      -0.03499222       0.24836906       0.05513387 </v>
   <v>       0.55127122       0.58148946       0.09025032 </v>
   <v>      -0.32320563      -0.48169038      -0.55795345 </v>
   <v>      -0.76194956      -0.09592521      -0.04222154 </v>
   <v>      -0.66779955      -1.19320168      -0.78543190 </v>
   <v>      -0.34097607      -0.49471565       0.87322854 </v>
   <v>      -0.53224471      -0.07157360      -0.63182643 </v>
  </varray>
  <varray name="stress" >
   <v>      19.30145296       1.10099235       2.03393641 </v>
   <v>       1.10099238      18.75215320       2.52024317 </v>
   <v>       2.03393623       2.52024328       6.39657313 </v>
  </varray>
  <energy>
   <i name="e_fr_energy">   -190.38491567 </i>
   <i name="e_wo_entrp">   -190.38491567 </i>
   <i name="e_0_energy">     -0.00000000 </i>
  </energy>
  <time name="totalsc"> 2752.61 2766.60</time>
  <eigenvalues>
   <array>
    <dimension dim="1">band</dimension>
    <dimension dim="2">kpoint</dimension>
    <dimension dim="3">spin</dimension>
    <field>eigene</field>
    <field>occ</field>
    <set>
     <set comment="spin 1">
      <set comment="kpoint 1">
       <r>  -62.5806    1.0000 </r>
       <r>  -62.5301    1.0000 </r>
       <r>  -62.5056    1.0000 </r>
       <r>  -62.4607    1.0000 </r>
       <r>  -62.3935    1.0000 </r>
       <r>  -62.3436    1.0000 </r>
       <r>  -62.3240    1.0000 </r>
       <r>  -62.2782    1.0000 </r>
       <r>  -62.2558    1.0000 </r>
       <r>  -36.9439    1.0000 </r>
       <r>  -36.8869    1.0000 </r>
       <r>  -36.8631    1.0000 </r>
       <r>  -36.8233    1.0000 </r>
       <r>  -36.7903    1.0000 </r>
       <r>  -36.7818    1.0000 </r>
       <r>  -36.7493    1.0000 </r>
       <r>  -36.7277    1.0000 </r>
       <r>  -36.6995    1.0000 </r>
       <r>  -36.6590    1.0000 </r>
       <r>  -36.5964    1.0000 </r>
       <r>  -36.5686    1.0000 </r>
       <r>  -36.5515    1.0000 </r>
       <r>  -36.5087    1.0000 </r>
       <r>  -36.5028    1.0000 </r>
       <r>  -36.4846    1.0000 </r>
       <r>  -36.4692    1.0000 </r>
       <r>  -36.4345    1.0000 </r>
       <r>  -36.4301    1.0000 </r>
       <r>  -36.4174    1.0000 </r>
       <r>  -36.3907    1.0000 </r>
       <r>  -36.3786    1.0000 </r>
       <r>  -36.3395    1.0000 </r>
       <r>  -36.3171    1.0000 </r>
       <r>  -36.2915    1.0000 </r>
       <r>  -36.2560    1.0000 </r>
       <r>  -36.2234    1.0000 </r>
       <r>  -15.7075    1.0000 </r>
       <r>  -14.7046    1.0000 </r>
       <r>  -14.5739    1.0000 </r>
       <r>  -14.4887    1.0000 </r>
       <r>  -14.3922    1.0000 </r>
       <r>  -14.3582    1.0000 </r>
       <r>  -14.3112    1.0000 </r>
       <r>  -14.2573    1.0000 </r>
       <r>  -14.0311    1.0000 </r>
       <r>  -13.9837    1.0000 </r>
       <r>  -13.9170    1.0000 </r>
       <r>  -13.8631    1.0000 </r>
       <r>  -13.6420    1.0000 </r>
       <r>  -13.6045    1.0000 </r>
       <r>  -13.5657    1.0000 </r>
       <r>  -13.5167    1.0000 </r>
       <r>  -13.4446    1.0000 </r>
       <r>  -13.1461    1.0000 </r>
       <r>   -7.0598    1.0000 </r>
       <r>   -6.8663    1.0000 </r>
       <r>   -6.8393    1.0000 </r>
       <r>   -6.7872    1.0000 </r>
       <r>   -6.7571    1.0000 </r>
       <r>   -6.6972    1.0000 </r>
       <r>   -6.6329    1.0000 </r>
       <r>   -6.5431    1.0000 </r>
       <r>   -6.5100    1.0000 </r>
       <r>   -6.4796    1.0000 </r>
       <r>   -6.4096    1.0000 </r>
       <r>   -6.3980    1.0000 </r>
       <r>   -6.3432    1.0000 </r>
       <r>   -6.3124    1.0000 </r>
       <r>   -6.2123    1.0000 </r>
       <r>   -6.1293    1.0000 </r>
       <r>   -6.0555    1.0000 </r>
       <r>   -6.0338    1.0000 </r>
       <r>   -5.9618    1.0000 </r>
       <r>   -5.4816    1.0000 </r>
       <r>   -5.4224    1.0000 </r>
       <r>   -5.3895    1.0000 </r>
       <r>   -5.3183    1.0000 </r>
       <r>   -5.1682    1.0000 </r>
       <r>   -5.0545    1.0000 </r>
       <r>   -4.9588    1.0000 </r>
       <r>   -4.8220    1.0000 </r>
       <r>   -4.7316    1.0000 </r>
       <r>   -4.6542    1.0000 </r>
       <r>   -4.6365    1.0000 </r>
       <r>   -4.5897    1.0000 </r>
       <r>   -4.5269    1.0000 </r>
       <r>   -4.4906    1.0000 </r>
       <r>   -4.3521    1.0000 </r>
       <r>   -4.2835    1.0000 </r>
       <r>   -4.2288    1.0000 </r>
       <r>   -4.2108    1.0000 </r>
       <r>   -4.1639    1.0000 </r>
       <r>   -4.0800    1.0000 </r>
       <r>   -3.7852    1.0000 </r>
       <r>   -3.7154    1.0000 </r>
       <r>   -3.6892    1.0000 </r>
       <r>   -3.6438    1.0000 </r>
       <r>   -3.5242    1.0000 </r>
       <r>   -3.4790    1.0000 </r>
       <r>   -3.1271    1.0000 </r>
       <r>   -3.0771    1.0000 </r>
       <r>   -2.9695    1.0000 </r>
       <r>   -2.9372    1.0000 </r>
       <r>   -2.9039    1.0000 </r>
       <r>   -2.8509    1.0000 </r>
       <r>   -2.7233    1.0000 </r>
       <r>   -2.5523    1.0000 </r>
       <r>   -2.4906    1.0000 </r>
       <r>   -2.4620    1.0000 </r>
       <r>   -2.3720    1.0000 </r>
       <r>   -2.1417    1.0000 </r>
       <r>   -2.0450    1.0000 </r>
       <r>   -1.8666    1.0000 </r>
       <r>   -1.7810    1.0000 </r>
       <r>   -1.7127    1.0000 </r>
       <r>   -1.4756    1.0000 </r>
       <r>   -1.2728    1.0000 </r>
       <r>   -0.7361    0.0000 </r>
       <r>   -0.3203    0.0000 </r>
       <r>   -0.2651    0.0000 </r>
       <r>   -0.1598    0.0000 </r>
       <r>   -0.1216    0.0000 </r>
       <r>   -0.0486    0.0000 </r>
       <r>    0.0015    0.0000 </r>
       <r>    0.0685    0.0000 </r>
       <r>    0.0906    0.0000 </r>
       <r>    0.3416    0.0000 </r>
       <r>    0.6701    0.0000 </r>
       <r>    0.7192    0.0000 </r>
       <r>    0.7648    0.0000 </r>
       <r>    0.8844    0.0000 </r>
       <r>    1.0024    0.0000 </r>
       <r>    1.0585    0.0000 </r>
       <r>    1.1140    0.0000 </r>
       <r>    1.1468    0.0000 </r>
       <r>    1.3920    0.0000 </r>
       <r>    1.7080    0.0000 </r>
       <r>    1.7967    0.0000 </r>
       <r>    1.8517    0.0000 </r>
       <r>    1.8739    0.0000 </r>
      </set>
      <set comment="kpoint 2">
       <r>  -62.5806    1.0000 </r>
       <r>  -62.5302    1.0000 </r>
       <r>  -62.5055    1.0000 </r>
       <r>  -62.4607    1.0000 </r>
       <r>  -62.3935    1.0000 </r>
       <r>  -62.3436    1.0000 </r>
       <r>  -62.3240    1.0000 </r>
       <r>  -62.2783    1.0000 </r>
       <r>  -62.2558    1.0000 </r>
       <r>  -36.9484    1.0000 </r>
       <r>  -36.8934    1.0000 </r>
       <r>  -36.8649    1.0000 </r>
       <r>  -36.8267    1.0000 </r>
       <r>  -36.8048    1.0000 </r>
       <r>  -36.7614    1.0000 </r>
       <r>  -36.7455    1.0000 </r>
       <r>  -36.7157    1.0000 </r>
       <r>  -36.6914    1.0000 </r>
       <r>  -36.6551    1.0000 </r>
       <r>  -36.5966    1.0000 </r>
       <r>  -36.5696    1.0000 </r>
       <r>  -36.5514    1.0000 </r>
       <r>  -36.5200    1.0000 </r>
       <r>  -36.5032    1.0000 </r>
       <r>  -36.4874    1.0000 </r>
       <r>  -36.4736    1.0000 </r>
       <r>  -36.4381    1.0000 </r>
       <r>  -36.4335    1.0000 </r>
       <r>  -36.4128    1.0000 </r>
       <r>  -36.3901    1.0000 </r>
       <r>  -36.3761    1.0000 </r>
       <r>  -36.3352    1.0000 </r>
       <r>  -36.3171    1.0000 </r>
       <r>  -36.2908    1.0000 </r>
       <r>  -36.2579    1.0000 </r>
       <r>  -36.2248    1.0000 </r>
       <r>  -15.6611    1.0000 </r>
       <r>  -14.7957    1.0000 </r>
       <r>  -14.6586    1.0000 </r>
       <r>  -14.4805    1.0000 </r>
       <r>  -14.4576    1.0000 </r>
       <r>  -14.3350    1.0000 </r>
       <r>  -14.2439    1.0000 </r>
       <r>  -14.1763    1.0000 </r>
       <r>  -14.0663    1.0000 </r>
       <r>  -14.0164    1.0000 </r>
       <r>  -13.8746    1.0000 </r>
       <r>  -13.8162    1.0000 </r>
       <r>  -13.7044    1.0000 </r>
       <r>  -13.6109    1.0000 </r>
       <r>  -13.5571    1.0000 </r>
       <r>  -13.4742    1.0000 </r>
       <r>  -13.3994    1.0000 </r>
       <r>  -13.1556    1.0000 </r>
       <r>   -7.1449    1.0000 </r>
       <r>   -7.0400    1.0000 </r>
       <r>   -6.9903    1.0000 </r>
       <r>   -6.9109    1.0000 </r>
       <r>   -6.8719    1.0000 </r>
       <r>   -6.7615    1.0000 </r>
       <r>   -6.7287    1.0000 </r>
       <r>   -6.5680    1.0000 </r>
       <r>   -6.4794    1.0000 </r>
       <r>   -6.4772    1.0000 </r>
       <r>   -6.4209    1.0000 </r>
       <r>   -6.2658    1.0000 </r>
       <r>   -6.2244    1.0000 </r>
       <r>   -6.1137    1.0000 </r>
       <r>   -6.0601    1.0000 </r>
       <r>   -5.9795    1.0000 </r>
       <r>   -5.8621    1.0000 </r>
       <r>   -5.8189    1.0000 </r>
       <r>   -5.7534    1.0000 </r>
       <r>   -5.6133    1.0000 </r>
       <r>   -5.5701    1.0000 </r>
       <r>   -5.3246    1.0000 </r>
       <r>   -5.2685    1.0000 </r>
       <r>   -5.1556    1.0000 </r>
       <r>   -5.1010    1.0000 </r>
       <r>   -5.0635    1.0000 </r>
       <r>   -4.9988    1.0000 </r>
       <r>   -4.7922    1.0000 </r>
       <r>   -4.7763    1.0000 </r>
       <r>   -4.6973    1.0000 </r>
       <r>   -4.5899    1.0000 </r>
       <r>   -4.4750    1.0000 </r>
       <r>   -4.4101    1.0000 </r>
       <r>   -4.3539    1.0000 </r>
       <r>   -4.2707    1.0000 </r>
       <r>   -4.2366    1.0000 </r>
       <r>   -4.1669    1.0000 </r>
       <r>   -4.1027    1.0000 </r>
       <r>   -4.0564    1.0000 </r>
       <r>   -3.8201    1.0000 </r>
       <r>   -3.7410    1.0000 </r>
       <r>   -3.7027    1.0000 </r>
       <r>   -3.6847    1.0000 </r>
       <r>   -3.6174    1.0000 </r>
       <r>   -3.5162    1.0000 </r>
       <r>   -3.1867    1.0000 </r>
       <r>   -3.0797    1.0000 </r>
       <r>   -3.0083    1.0000 </r>
       <r>   -2.9235    1.0000 </r>
       <r>   -2.8007    1.0000 </r>
       <r>   -2.7210    1.0000 </r>
       <r>   -2.6885    1.0000 </r>
       <r>   -2.5399    1.0000 </r>
       <r>   -2.4879    1.0000 </r>
       <r>   -2.3526    1.0000 </r>
       <r>   -2.2882    1.0000 </r>
       <r>   -2.1810    1.0000 </r>
       <r>   -2.0616    1.0000 </r>
       <r>   -1.9122    1.0000 </r>
       <r>   -1.8004    1.0000 </r>
       <r>   -1.7410    1.0000 </r>
       <r>   -1.5732    1.0000 </r>
       <r>   -1.3774    1.0000 </r>
       <r>   -0.7266    0.0000 </r>
       <r>   -0.3258    0.0000 </r>
       <r>   -0.2487    0.0000 </r>
       <r>   -0.1720    0.0000 </r>
       <r>   -0.1240    0.0000 </r>
       <r>   -0.0449    0.0000 </r>
       <r>    0.0200    0.0000 </r>
       <r>    0.1236    0.0000 </r>
       <r>    0.1751    0.0000 </r>
       <r>    0.3699    0.0000 </r>
       <r>    0.5696    0.0000 </r>
       <r>    0.7200    0.0000 </r>
       <r>    0.7988    0.0000 </r>
       <r>    0.9293    0.0000 </r>
       <r>    1.0099    0.0000 </r>
       <r>    1.0996    0.0000 </r>
       <r>    1.1430    0.0000 </r>
       <r>    1.2189    0.0000 </r>
       <r>    1.4183    0.0000 </r>
       <r>    1.4768    0.0000 </r>
       <r>    1.6559    0.0000 </r>
       <r>    1.6876    0.0000 </r>
       <r>    1.8380    0.0000 </r>
      </set>
      <set comment="kpoint 3">
       <r>  -62.5805    1.0000 </r>
       <r>  -62.5304    1.0000 </r>
       <r>  -62.5054    1.0000 </r>
       <r>  -62.4608    1.0000 </r>
       <r>  -62.3935    1.0000 </r>
       <r>  -62.3436    1.0000 </r>
       <r>  -62.3238    1.0000 </r>
       <r>  -62.2784    1.0000 </r>
       <r>  -62.2557    1.0000 </r>
       <r>  -36.9565    1.0000 </r>
       <r>  -36.9066    1.0000 </r>
       <r>  -36.8701    1.0000 </r>
       <r>  -36.8292    1.0000 </r>
       <r>  -36.8115    1.0000 </r>
       <r>  -36.7435    1.0000 </r>
       <r>  -36.7322    1.0000 </r>
       <r>  -36.7065    1.0000 </r>
       <r>  -36.6699    1.0000 </r>
       <r>  -36.6428    1.0000 </r>
       <r>  -36.5973    1.0000 </r>
       <r>  -36.5687    1.0000 </r>
       <r>  -36.5592    1.0000 </r>
       <r>  -36.5407    1.0000 </r>
       <r>  -36.5030    1.0000 </r>
       <r>  -36.4938    1.0000 </r>
       <r>  -36.4783    1.0000 </r>
       <r>  -36.4473    1.0000 </r>
       <r>  -36.4331    1.0000 </r>
       <r>  -36.4100    1.0000 </r>
       <r>  -36.3902    1.0000 </r>
       <r>  -36.3731    1.0000 </r>
       <r>  -36.3274    1.0000 </r>
       <r>  -36.3171    1.0000 </r>
       <r>  -36.2897    1.0000 </r>
       <r>  -36.2603    1.0000 </r>
       <r>  -36.2278    1.0000 </r>
       <r>  -15.5263    1.0000 </r>
       <r>  -15.0416    1.0000 </r>
       <r>  -14.7385    1.0000 </r>
       <r>  -14.5188    1.0000 </r>
       <r>  -14.4440    1.0000 </r>
       <r>  -14.3311    1.0000 </r>
       <r>  -14.1414    1.0000 </r>
       <r>  -14.1071    1.0000 </r>
       <r>  -14.0799    1.0000 </r>
       <r>  -13.9900    1.0000 </r>
       <r>  -13.8502    1.0000 </r>
       <r>  -13.8304    1.0000 </r>
       <r>  -13.7240    1.0000 </r>
       <r>  -13.6937    1.0000 </r>
       <r>  -13.5644    1.0000 </r>
       <r>  -13.3726    1.0000 </r>
       <r>  -13.2915    1.0000 </r>
       <r>  -13.1884    1.0000 </r>
       <r>   -7.5128    1.0000 </r>
       <r>   -7.1819    1.0000 </r>
       <r>   -7.1543    1.0000 </r>
       <r>   -7.0300    1.0000 </r>
       <r>   -6.9522    1.0000 </r>
       <r>   -6.8141    1.0000 </r>
       <r>   -6.6859    1.0000 </r>
       <r>   -6.4626    1.0000 </r>
       <r>   -6.4190    1.0000 </r>
       <r>   -6.3751    1.0000 </r>
       <r>   -6.3303    1.0000 </r>
       <r>   -6.2536    1.0000 </r>
       <r>   -6.1812    1.0000 </r>
       <r>   -6.0558    1.0000 </r>
       <r>   -5.9522    1.0000 </r>
       <r>   -5.8461    1.0000 </r>
       <r>   -5.7872    1.0000 </r>
       <r>   -5.6582    1.0000 </r>
       <r>   -5.5288    1.0000 </r>
       <r>   -5.3999    1.0000 </r>
       <r>   -5.3453    1.0000 </r>
       <r>   -5.2938    1.0000 </r>
       <r>   -5.2669    1.0000 </r>
       <r>   -5.2167    1.0000 </r>
       <r>   -5.1710    1.0000 </r>
       <r>   -5.1058    1.0000 </r>
       <r>   -5.0516    1.0000 </r>
       <r>   -4.9296    1.0000 </r>
       <r>   -4.8678    1.0000 </r>
       <r>   -4.7877    1.0000 </r>
       <r>   -4.6719    1.0000 </r>
       <r>   -4.5140    1.0000 </r>
       <r>   -4.4536    1.0000 </r>
       <r>   -4.3666    1.0000 </r>
       <r>   -4.2447    1.0000 </r>
       <r>   -4.1877    1.0000 </r>
       <r>   -4.1073    1.0000 </r>
       <r>   -4.0512    1.0000 </r>
       <r>   -3.9976    1.0000 </r>
       <r>   -3.9255    1.0000 </r>
       <r>   -3.8757    1.0000 </r>
       <r>   -3.8387    1.0000 </r>
       <r>   -3.7881    1.0000 </r>
       <r>   -3.6933    1.0000 </r>
       <r>   -3.3847    1.0000 </r>
       <r>   -3.3052    1.0000 </r>
       <r>   -3.2324    1.0000 </r>
       <r>   -2.8992    1.0000 </r>
       <r>   -2.8086    1.0000 </r>
       <r>   -2.7633    1.0000 </r>
       <r>   -2.6447    1.0000 </r>
       <r>   -2.5591    1.0000 </r>
       <r>   -2.4422    1.0000 </r>
       <r>   -2.4080    1.0000 </r>
       <r>   -2.3790    1.0000 </r>
       <r>   -2.1930    1.0000 </r>
       <r>   -2.1309    1.0000 </r>
       <r>   -2.0989    1.0000 </r>
       <r>   -1.9752    1.0000 </r>
       <r>   -1.8661    1.0000 </r>
       <r>   -1.7953    1.0000 </r>
       <r>   -1.7008    1.0000 </r>
       <r>   -1.5152    1.0000 </r>
       <r>   -0.7007    0.0000 </r>
       <r>   -0.4730    0.0000 </r>
       <r>   -0.2634    0.0000 </r>
       <r>   -0.2042    0.0000 </r>
       <r>   -0.0466    0.0000 </r>
       <r>    0.0492    0.0000 </r>
       <r>    0.1192    0.0000 </r>
       <r>    0.1857    0.0000 </r>
       <r>    0.2230    0.0000 </r>
       <r>    0.4401    0.0000 </r>
       <r>    0.5378    0.0000 </r>
       <r>    0.6924    0.0000 </r>
       <r>    0.8689    0.0000 </r>
       <r>    1.0101    0.0000 </r>
       <r>    1.1163    0.0000 </r>
       <r>    1.1318    0.0000 </r>
       <r>    1.1957    0.0000 </r>
       <r>    1.2275    0.0000 </r>
       <r>    1.2762    0.0000 </r>
       <r>    1.3805    0.0000 </r>
       <r>    1.4892    0.0000 </r>
       <r>    1.5451    0.0000 </r>
       <r>    1.7069    0.0000 </r>
      </set>
      <set comment="kpoint 4">
       <r>  -62.5804    1.0000 </r>
       <r>  -62.5305    1.0000 </r>
       <r>  -62.5053    1.0000 </r>
       <r>  -62.4609    1.0000 </r>
       <r>  -62.3935    1.0000 </r>
       <r>  -62.3437    1.0000 </r>
       <r>  -62.3237    1.0000 </r>
       <r>  -62.2784    1.0000 </r>
       <r>  -62.2557    1.0000 </r>
       <r>  -36.9604    1.0000 </r>
       <r>  -36.9115    1.0000 </r>
       <r>  -36.8752    1.0000 </r>
       <r>  -36.8278    1.0000 </r>
       <r>  -36.8132    1.0000 </r>
       <r>  -36.7372    1.0000 </r>
       <r>  -36.7223    1.0000 </r>
       <r>  -36.7053    1.0000 </r>
       <r>  -36.6599    1.0000 </r>
       <r>  -36.6351    1.0000 </r>
       <r>  -36.5919    1.0000 </r>
       <r>  -36.5806    1.0000 </r>
       <r>  -36.5571    1.0000 </r>
       <r>  -36.5507    1.0000 </r>
       <r>  -36.5034    1.0000 </r>
       <r>  -36.4956    1.0000 </r>
       <r>  -36.4811    1.0000 </r>
       <r>  -36.4511    1.0000 </r>
       <r>  -36.4330    1.0000 </r>
       <r>  -36.4099    1.0000 </r>
       <r>  -36.3906    1.0000 </r>
       <r>  -36.3723    1.0000 </r>
       <r>  -36.3242    1.0000 </r>
       <r>  -36.3169    1.0000 </r>
       <r>  -36.2893    1.0000 </r>
       <r>  -36.2607    1.0000 </r>
       <r>  -36.2296    1.0000 </r>
       <r>  -15.3510    1.0000 </r>
       <r>  -15.2676    1.0000 </r>
       <r>  -14.7640    1.0000 </r>
       <r>  -14.5399    1.0000 </r>
       <r>  -14.4085    1.0000 </r>
       <r>  -14.3629    1.0000 </r>
       <r>  -14.1184    1.0000 </r>
       <r>  -14.1002    1.0000 </r>
       <r>  -13.9881    1.0000 </r>
       <r>  -13.9617    1.0000 </r>
       <r>  -13.8842    1.0000 </r>
       <r>  -13.8513    1.0000 </r>
       <r>  -13.7956    1.0000 </r>
       <r>  -13.6466    1.0000 </r>
       <r>  -13.6006    1.0000 </r>
       <r>  -13.3079    1.0000 </r>
       <r>  -13.2438    1.0000 </r>
       <r>  -13.2161    1.0000 </r>
       <r>   -7.6519    1.0000 </r>
       <r>   -7.2488    1.0000 </r>
       <r>   -7.2252    1.0000 </r>
       <r>   -7.0920    1.0000 </r>
       <r>   -7.0171    1.0000 </r>
       <r>   -6.6484    1.0000 </r>
       <r>   -6.6203    1.0000 </r>
       <r>   -6.5484    1.0000 </r>
       <r>   -6.3765    1.0000 </r>
       <r>   -6.3024    1.0000 </r>
       <r>   -6.2877    1.0000 </r>
       <r>   -6.2463    1.0000 </r>
       <r>   -6.2018    1.0000 </r>
       <r>   -6.0769    1.0000 </r>
       <r>   -5.9874    1.0000 </r>
       <r>   -5.8248    1.0000 </r>
       <r>   -5.7023    1.0000 </r>
       <r>   -5.6443    1.0000 </r>
       <r>   -5.4980    1.0000 </r>
       <r>   -5.4071    1.0000 </r>
       <r>   -5.3310    1.0000 </r>
       <r>   -5.2923    1.0000 </r>
       <r>   -5.2670    1.0000 </r>
       <r>   -5.1780    1.0000 </r>
       <r>   -5.1075    1.0000 </r>
       <r>   -4.9827    1.0000 </r>
       <r>   -4.9554    1.0000 </r>
       <r>   -4.8604    1.0000 </r>
       <r>   -4.8403    1.0000 </r>
       <r>   -4.7787    1.0000 </r>
       <r>   -4.6689    1.0000 </r>
       <r>   -4.5845    1.0000 </r>
       <r>   -4.4825    1.0000 </r>
       <r>   -4.4224    1.0000 </r>
       <r>   -4.3397    1.0000 </r>
       <r>   -4.2695    1.0000 </r>
       <r>   -4.1942    1.0000 </r>
       <r>   -4.1119    1.0000 </r>
       <r>   -4.0413    1.0000 </r>
       <r>   -3.9546    1.0000 </r>
       <r>   -3.8912    1.0000 </r>
       <r>   -3.8373    1.0000 </r>
       <r>   -3.7160    1.0000 </r>
       <r>   -3.6897    1.0000 </r>
       <r>   -3.3296    1.0000 </r>
       <r>   -3.2760    1.0000 </r>
       <r>   -3.2044    1.0000 </r>
       <r>   -3.0790    1.0000 </r>
       <r>   -2.8361    1.0000 </r>
       <r>   -2.7190    1.0000 </r>
       <r>   -2.6154    1.0000 </r>
       <r>   -2.5366    1.0000 </r>
       <r>   -2.3957    1.0000 </r>
       <r>   -2.3842    1.0000 </r>
       <r>   -2.3286    1.0000 </r>
       <r>   -2.1804    1.0000 </r>
       <r>   -2.1176    1.0000 </r>
       <r>   -2.0892    1.0000 </r>
       <r>   -1.9672    1.0000 </r>
       <r>   -1.8593    1.0000 </r>
       <r>   -1.8246    1.0000 </r>
       <r>   -1.7597    1.0000 </r>
       <r>   -1.5625    1.0000 </r>
       <r>   -0.6489    0.0000 </r>
       <r>   -0.5842    0.0000 </r>
       <r>   -0.3015    0.0000 </r>
       <r>   -0.1929    0.0000 </r>
       <r>   -0.0736    0.0000 </r>
       <r>    0.1133    0.0000 </r>
       <r>    0.1800    0.0000 </r>
       <r>    0.2176    0.0000 </r>
       <r>    0.2491    0.0000 </r>
       <r>    0.4788    0.0000 </r>
       <r>    0.5771    0.0000 </r>
       <r>    0.7060    0.0000 </r>
       <r>    0.9378    0.0000 </r>
       <r>    0.9951    0.0000 </r>
       <r>    1.0624    0.0000 </r>
       <r>    1.1416    0.0000 </r>
       <r>    1.1845    0.0000 </r>
       <r>    1.2513    0.0000 </r>
       <r>    1.2960    0.0000 </r>
       <r>    1.3324    0.0000 </r>
       <r>    1.4401    0.0000 </r>
       <r>    1.4948    0.0000 </r>
       <r>    1.6302    0.0000 </r>
      </set>
      <set comment="kpoint 5">
       <r>  -62.5806    1.0000 </r>
       <r>  -62.5303    1.0000 </r>
       <r>  -62.5055    1.0000 </r>
       <r>  -62.4607    1.0000 </r>
       <r>  -62.3935    1.0000 </r>
       <r>  -62.3436    1.0000 </r>
       <r>  -62.3240    1.0000 </r>
       <r>  -62.2783    1.0000 </r>
       <r>  -62.2558    1.0000 </r>
       <r>  -36.9489    1.0000 </r>
       <r>  -36.8939    1.0000 </r>
       <r>  -36.8596    1.0000 </r>
       <r>  -36.8333    1.0000 </r>
       <r>  -36.7953    1.0000 </r>
       <r>  -36.7726    1.0000 </r>
       <r>  -36.7417    1.0000 </r>
       <r>  -36.7217    1.0000 </r>
       <r>  -36.6862    1.0000 </r>
       <r>  -36.6559    1.0000 </r>
       <r>  -36.5942    1.0000 </r>
       <r>  -36.5696    1.0000 </r>
       <r>  -36.5544    1.0000 </r>
       <r>  -36.5167    1.0000 </r>
       <r>  -36.5028    1.0000 </r>
       <r>  -36.4844    1.0000 </r>
       <r>  -36.4729    1.0000 </r>
       <r>  -36.4459    1.0000 </r>
       <r>  -36.4298    1.0000 </r>
       <r>  -36.4138    1.0000 </r>
       <r>  -36.3903    1.0000 </r>
       <r>  -36.3757    1.0000 </r>
       <r>  -36.3365    1.0000 </r>
       <r>  -36.3169    1.0000 </r>
       <r>  -36.2895    1.0000 </r>
       <r>  -36.2568    1.0000 </r>
       <r>  -36.2261    1.0000 </r>
       <r>  -15.6612    1.0000 </r>
       <r>  -14.7953    1.0000 </r>
       <r>  -14.6624    1.0000 </r>
       <r>  -14.4793    1.0000 </r>
       <r>  -14.4302    1.0000 </r>
       <r>  -14.3629    1.0000 </r>
       <r>  -14.2398    1.0000 </r>
       <r>  -14.1855    1.0000 </r>
       <r>  -14.0642    1.0000 </r>
       <r>  -14.0082    1.0000 </r>
       <r>  -13.8700    1.0000 </r>
       <r>  -13.8221    1.0000 </r>
       <r>  -13.7058    1.0000 </r>
       <r>  -13.6113    1.0000 </r>
       <r>  -13.5627    1.0000 </r>
       <r>  -13.4714    1.0000 </r>
       <r>  -13.3963    1.0000 </r>
       <r>  -13.1552    1.0000 </r>
       <r>   -7.1596    1.0000 </r>
       <r>   -7.0237    1.0000 </r>
       <r>   -6.9617    1.0000 </r>
       <r>   -6.9306    1.0000 </r>
       <r>   -6.8632    1.0000 </r>
       <r>   -6.7452    1.0000 </r>
       <r>   -6.7169    1.0000 </r>
       <r>   -6.5653    1.0000 </r>
       <r>   -6.4944    1.0000 </r>
       <r>   -6.4668    1.0000 </r>
       <r>   -6.4222    1.0000 </r>
       <r>   -6.3153    1.0000 </r>
       <r>   -6.2155    1.0000 </r>
       <r>   -6.1032    1.0000 </r>
       <r>   -6.0608    1.0000 </r>
       <r>   -5.9889    1.0000 </r>
       <r>   -5.8974    1.0000 </r>
       <r>   -5.8095    1.0000 </r>
       <r>   -5.7513    1.0000 </r>
       <r>   -5.6364    1.0000 </r>
       <r>   -5.5964    1.0000 </r>
       <r>   -5.3197    1.0000 </r>
       <r>   -5.2517    1.0000 </r>
       <r>   -5.1839    1.0000 </r>
       <r>   -5.1258    1.0000 </r>
       <r>   -5.0472    1.0000 </r>
       <r>   -4.9404    1.0000 </r>
       <r>   -4.8332    1.0000 </r>
       <r>   -4.6815    1.0000 </r>
       <r>   -4.6684    1.0000 </r>
       <r>   -4.5990    1.0000 </r>
       <r>   -4.4792    1.0000 </r>
       <r>   -4.4292    1.0000 </r>
       <r>   -4.3404    1.0000 </r>
       <r>   -4.3021    1.0000 </r>
       <r>   -4.2019    1.0000 </r>
       <r>   -4.1628    1.0000 </r>
       <r>   -4.1420    1.0000 </r>
       <r>   -4.0782    1.0000 </r>
       <r>   -3.8106    1.0000 </r>
       <r>   -3.7357    1.0000 </r>
       <r>   -3.7023    1.0000 </r>
       <r>   -3.6725    1.0000 </r>
       <r>   -3.6017    1.0000 </r>
       <r>   -3.5001    1.0000 </r>
       <r>   -3.2222    1.0000 </r>
       <r>   -3.1056    1.0000 </r>
       <r>   -2.9651    1.0000 </r>
       <r>   -2.8896    1.0000 </r>
       <r>   -2.7946    1.0000 </r>
       <r>   -2.7708    1.0000 </r>
       <r>   -2.7120    1.0000 </r>
       <r>   -2.5338    1.0000 </r>
       <r>   -2.4843    1.0000 </r>
       <r>   -2.3579    1.0000 </r>
       <r>   -2.2859    1.0000 </r>
       <r>   -2.1532    1.0000 </r>
       <r>   -2.0933    1.0000 </r>
       <r>   -1.9162    1.0000 </r>
       <r>   -1.8175    1.0000 </r>
       <r>   -1.7358    1.0000 </r>
       <r>   -1.5599    1.0000 </r>
       <r>   -1.3764    1.0000 </r>
       <r>   -0.7240    0.0000 </r>
       <r>   -0.3433    0.0000 </r>
       <r>   -0.2215    0.0000 </r>
       <r>   -0.1875    0.0000 </r>
       <r>   -0.1125    0.0000 </r>
       <r>   -0.0226    0.0000 </r>
       <r>    0.0217    0.0000 </r>
       <r>    0.1273    0.0000 </r>
       <r>    0.1615    0.0000 </r>
       <r>    0.3815    0.0000 </r>
       <r>    0.5730    0.0000 </r>
       <r>    0.6817    0.0000 </r>
       <r>    0.8259    0.0000 </r>
       <r>    0.8938    0.0000 </r>
       <r>    1.0419    0.0000 </r>
       <r>    1.0985    0.0000 </r>
       <r>    1.1370    0.0000 </r>
       <r>    1.2130    0.0000 </r>
       <r>    1.3952    0.0000 </r>
       <r>    1.4536    0.0000 </r>
       <r>    1.5419    0.0000 </r>
       <r>    1.7263    0.0000 </r>
       <r>    1.9280    0.0000 </r>
      </set>
      <set comment="kpoint 6">
       <r>  -62.5805    1.0000 </r>
       <r>  -62.5305    1.0000 </r>
       <r>  -62.5054    1.0000 </r>
       <r>  -62.4608    1.0000 </r>
       <r>  -62.3935    1.0000 </r>
       <r>  -62.3436    1.0000 </r>
       <r>  -62.3239    1.0000 </r>
       <r>  -62.2783    1.0000 </r>
       <r>  -62.2558    1.0000 </r>
       <r>  -36.9561    1.0000 </r>
       <r>  -36.9039    1.0000 </r>
       <r>  -36.8580    1.0000 </r>
       <r>  -36.8406    1.0000 </r>
       <r>  -36.7973    1.0000 </r>
       <r>  -36.7642    1.0000 </r>
       <r>  -36.7395    1.0000 </r>
       <r>  -36.6994    1.0000 </r>
       <r>  -36.6765    1.0000 </r>
       <r>  -36.6462    1.0000 </r>
       <r>  -36.5923    1.0000 </r>
       <r>  -36.5703    1.0000 </r>
       <r>  -36.5568    1.0000 </r>
       <r>  -36.5357    1.0000 </r>
       <r>  -36.5056    1.0000 </r>
       <r>  -36.4854    1.0000 </r>
       <r>  -36.4784    1.0000 </r>
       <r>  -36.4524    1.0000 </r>
       <r>  -36.4310    1.0000 </r>
       <r>  -36.4095    1.0000 </r>
       <r>  -36.3886    1.0000 </r>
       <r>  -36.3735    1.0000 </r>
       <r>  -36.3305    1.0000 </r>
       <r>  -36.3165    1.0000 </r>
       <r>  -36.2906    1.0000 </r>
       <r>  -36.2591    1.0000 </r>
       <r>  -36.2279    1.0000 </r>
       <r>  -15.5707    1.0000 </r>
       <r>  -14.9137    1.0000 </r>
       <r>  -14.8296    1.0000 </r>
       <r>  -14.4586    1.0000 </r>
       <r>  -14.4018    1.0000 </r>
       <r>  -14.3550    1.0000 </r>
       <r>  -14.1953    1.0000 </r>
       <r>  -14.1263    1.0000 </r>
       <r>  -14.0545    1.0000 </r>
       <r>  -14.0235    1.0000 </r>
       <r>  -13.8310    1.0000 </r>
       <r>  -13.8009    1.0000 </r>
       <r>  -13.7639    1.0000 </r>
       <r>  -13.6623    1.0000 </r>
       <r>  -13.5791    1.0000 </r>
       <r>  -13.3869    1.0000 </r>
       <r>  -13.3200    1.0000 </r>
       <r>  -13.1729    1.0000 </r>
       <r>   -7.3587    1.0000 </r>
       <r>   -7.3188    1.0000 </r>
       <r>   -7.1055    1.0000 </r>
       <r>   -6.9885    1.0000 </r>
       <r>   -6.7959    1.0000 </r>
       <r>   -6.7658    1.0000 </r>
       <r>   -6.7105    1.0000 </r>
       <r>   -6.5116    1.0000 </r>
       <r>   -6.4677    1.0000 </r>
       <r>   -6.4297    1.0000 </r>
       <r>   -6.3085    1.0000 </r>
       <r>   -6.2656    1.0000 </r>
       <r>   -6.2096    1.0000 </r>
       <r>   -6.1220    1.0000 </r>
       <r>   -6.0682    1.0000 </r>
       <r>   -5.7906    1.0000 </r>
       <r>   -5.7294    1.0000 </r>
       <r>   -5.6192    1.0000 </r>
       <r>   -5.5927    1.0000 </r>
       <r>   -5.5630    1.0000 </r>
       <r>   -5.4496    1.0000 </r>
       <r>   -5.2783    1.0000 </r>
       <r>   -5.2332    1.0000 </r>
       <r>   -5.1974    1.0000 </r>
       <r>   -5.1500    1.0000 </r>
       <r>   -5.1484    1.0000 </r>
       <r>   -5.1157    1.0000 </r>
       <r>   -4.8946    1.0000 </r>
       <r>   -4.8014    1.0000 </r>
       <r>   -4.7295    1.0000 </r>
       <r>   -4.6949    1.0000 </r>
       <r>   -4.4641    1.0000 </r>
       <r>   -4.4148    1.0000 </r>
       <r>   -4.3058    1.0000 </r>
       <r>   -4.2592    1.0000 </r>
       <r>   -4.2186    1.0000 </r>
       <r>   -4.1094    1.0000 </r>
       <r>   -4.0693    1.0000 </r>
       <r>   -4.0274    1.0000 </r>
       <r>   -3.9330    1.0000 </r>
       <r>   -3.8774    1.0000 </r>
       <r>   -3.7723    1.0000 </r>
       <r>   -3.6918    1.0000 </r>
       <r>   -3.5942    1.0000 </r>
       <r>   -3.5450    1.0000 </r>
       <r>   -3.2206    1.0000 </r>
       <r>   -3.1123    1.0000 </r>
       <r>   -2.9995    1.0000 </r>
       <r>   -2.8872    1.0000 </r>
       <r>   -2.7732    1.0000 </r>
       <r>   -2.6578    1.0000 </r>
       <r>   -2.5937    1.0000 </r>
       <r>   -2.4794    1.0000 </r>
       <r>   -2.4189    1.0000 </r>
       <r>   -2.3117    1.0000 </r>
       <r>   -2.2676    1.0000 </r>
       <r>   -2.1768    1.0000 </r>
       <r>   -2.1054    1.0000 </r>
       <r>   -1.9466    1.0000 </r>
       <r>   -1.8852    1.0000 </r>
       <r>   -1.7471    1.0000 </r>
       <r>   -1.6555    1.0000 </r>
       <r>   -1.5044    1.0000 </r>
       <r>   -0.7012    0.0000 </r>
       <r>   -0.3582    0.0000 </r>
       <r>   -0.2956    0.0000 </r>
       <r>   -0.1916    0.0000 </r>
       <r>   -0.0123    0.0000 </r>
       <r>    0.0206    0.0000 </r>
       <r>    0.0522    0.0000 </r>
       <r>    0.1468    0.0000 </r>
       <r>    0.2219    0.0000 </r>
       <r>    0.4244    0.0000 </r>
       <r>    0.5551    0.0000 </r>
       <r>    0.6531    0.0000 </r>
       <r>    0.8552    0.0000 </r>
       <r>    1.0136    0.0000 </r>
       <r>    1.0804    0.0000 </r>
       <r>    1.1341    0.0000 </r>
       <r>    1.1929    0.0000 </r>
       <r>    1.2480    0.0000 </r>
       <r>    1.3014    0.0000 </r>
       <r>    1.3190    0.0000 </r>
       <r>    1.4743    0.0000 </r>
       <r>    1.6213    0.0000 </r>
       <r>    1.7481    0.0000 </r>
      </set>
      <set comment="kpoint 7">
       <r>  -62.5804    1.0000 </r>
       <r>  -62.5306    1.0000 </r>
       <r>  -62.5053    1.0000 </r>
       <r>  -62.4608    1.0000 </r>
       <r>  -62.3935    1.0000 </r>
       <r>  -62.3437    1.0000 </r>
       <r>  -62.3238    1.0000 </r>
       <r>  -62.2784    1.0000 </r>
       <r>  -62.2558    1.0000 </r>
       <r>  -36.9607    1.0000 </r>
       <r>  -36.9119    1.0000 </r>
       <r>  -36.8729    1.0000 </r>
       <r>  -36.8337    1.0000 </r>
       <r>  -36.8013    1.0000 </r>
       <r>  -36.7479    1.0000 </r>
       <r>  -36.7343    1.0000 </r>
       <r>  -36.6898    1.0000 </r>
       <r>  -36.6632    1.0000 </r>
       <r>  -36.6329    1.0000 </r>
       <r>  -36.5898    1.0000 </r>
       <r>  -36.5785    1.0000 </r>
       <r>  -36.5618    1.0000 </r>
       <r>  -36.5493    1.0000 </r>
       <r>  -36.5093    1.0000 </r>
       <r>  -36.4886    1.0000 </r>
       <r>  -36.4816    1.0000 </r>
       <r>  -36.4520    1.0000 </r>
       <r>  -36.4316    1.0000 </r>
       <r>  -36.4101    1.0000 </r>
       <r>  -36.3901    1.0000 </r>
       <r>  -36.3725    1.0000 </r>
       <r>  -36.3255    1.0000 </r>
       <r>  -36.3167    1.0000 </r>
       <r>  -36.2908    1.0000 </r>
       <r>  -36.2589    1.0000 </r>
       <r>  -36.2301    1.0000 </r>
       <r>  -15.4011    1.0000 </r>
       <r>  -15.1459    1.0000 </r>
       <r>  -14.9244    1.0000 </r>
       <r>  -14.4331    1.0000 </r>
       <r>  -14.4080    1.0000 </r>
       <r>  -14.3438    1.0000 </r>
       <r>  -14.1104    1.0000 </r>
       <r>  -14.0966    1.0000 </r>
       <r>  -14.0276    1.0000 </r>
       <r>  -13.9697    1.0000 </r>
       <r>  -13.8875    1.0000 </r>
       <r>  -13.8170    1.0000 </r>
       <r>  -13.7800    1.0000 </r>
       <r>  -13.7023    1.0000 </r>
       <r>  -13.6228    1.0000 </r>
       <r>  -13.2969    1.0000 </r>
       <r>  -13.2402    1.0000 </r>
       <r>  -13.2009    1.0000 </r>
       <r>   -7.5841    1.0000 </r>
       <r>   -7.4263    1.0000 </r>
       <r>   -7.3136    1.0000 </r>
       <r>   -6.9631    1.0000 </r>
       <r>   -6.8345    1.0000 </r>
       <r>   -6.6407    1.0000 </r>
       <r>   -6.6243    1.0000 </r>
       <r>   -6.4889    1.0000 </r>
       <r>   -6.4661    1.0000 </r>
       <r>   -6.3475    1.0000 </r>
       <r>   -6.3258    1.0000 </r>
       <r>   -6.2441    1.0000 </r>
       <r>   -6.1904    1.0000 </r>
       <r>   -6.1291    1.0000 </r>
       <r>   -6.0247    1.0000 </r>
       <r>   -5.7738    1.0000 </r>
       <r>   -5.6499    1.0000 </r>
       <r>   -5.5664    1.0000 </r>
       <r>   -5.5000    1.0000 </r>
       <r>   -5.4311    1.0000 </r>
       <r>   -5.3872    1.0000 </r>
       <r>   -5.3317    1.0000 </r>
       <r>   -5.2562    1.0000 </r>
       <r>   -5.1673    1.0000 </r>
       <r>   -5.0931    1.0000 </r>
       <r>   -5.0415    1.0000 </r>
       <r>   -4.9814    1.0000 </r>
       <r>   -4.9239    1.0000 </r>
       <r>   -4.9015    1.0000 </r>
       <r>   -4.8317    1.0000 </r>
       <r>   -4.6384    1.0000 </r>
       <r>   -4.5334    1.0000 </r>
       <r>   -4.4710    1.0000 </r>
       <r>   -4.3870    1.0000 </r>
       <r>   -4.3183    1.0000 </r>
       <r>   -4.2701    1.0000 </r>
       <r>   -4.1538    1.0000 </r>
       <r>   -4.1231    1.0000 </r>
       <r>   -4.0089    1.0000 </r>
       <r>   -3.9542    1.0000 </r>
       <r>   -3.8532    1.0000 </r>
       <r>   -3.7326    1.0000 </r>
       <r>   -3.7056    1.0000 </r>
       <r>   -3.5967    1.0000 </r>
       <r>   -3.4765    1.0000 </r>
       <r>   -3.2525    1.0000 </r>
       <r>   -3.1765    1.0000 </r>
       <r>   -2.9653    1.0000 </r>
       <r>   -2.9414    1.0000 </r>
       <r>   -2.8252    1.0000 </r>
       <r>   -2.7066    1.0000 </r>
       <r>   -2.4944    1.0000 </r>
       <r>   -2.4316    1.0000 </r>
       <r>   -2.3739    1.0000 </r>
       <r>   -2.3088    1.0000 </r>
       <r>   -2.2053    1.0000 </r>
       <r>   -2.1242    1.0000 </r>
       <r>   -2.0887    1.0000 </r>
       <r>   -1.9935    1.0000 </r>
       <r>   -1.8972    1.0000 </r>
       <r>   -1.7955    1.0000 </r>
       <r>   -1.7078    1.0000 </r>
       <r>   -1.5580    1.0000 </r>
       <r>   -0.6364    0.0000 </r>
       <r>   -0.4635    0.0000 </r>
       <r>   -0.3217    0.0000 </r>
       <r>   -0.1628    0.0000 </r>
       <r>   -0.0271    0.0000 </r>
       <r>    0.0518    0.0000 </r>
       <r>    0.1165    0.0000 </r>
       <r>    0.1810    0.0000 </r>
       <r>    0.2340    0.0000 </r>
       <r>    0.4852    0.0000 </r>
       <r>    0.5782    0.0000 </r>
       <r>    0.6741    0.0000 </r>
       <r>    0.9248    0.0000 </r>
       <r>    1.0254    0.0000 </r>
       <r>    1.1001    0.0000 </r>
       <r>    1.1301    0.0000 </r>
       <r>    1.1846    0.0000 </r>
       <r>    1.2293    0.0000 </r>
       <r>    1.2918    0.0000 </r>
       <r>    1.3094    0.0000 </r>
       <r>    1.4305    0.0000 </r>
       <r>    1.5498    0.0000 </r>
       <r>    1.5898    0.0000 </r>
      </set>
      <set comment="kpoint 8">
       <r>  -62.5805    1.0000 </r>
       <r>  -62.5304    1.0000 </r>
       <r>  -62.5054    1.0000 </r>
       <r>  -62.4609    1.0000 </r>
       <r>  -62.3935    1.0000 </r>
       <r>  -62.3437    1.0000 </r>
       <r>  -62.3238    1.0000 </r>
       <r>  -62.2784    1.0000 </r>
       <r>  -62.2558    1.0000 </r>
       <r>  -36.9584    1.0000 </r>
       <r>  -36.9114    1.0000 </r>
       <r>  -36.8805    1.0000 </r>
       <r>  -36.8327    1.0000 </r>
       <r>  -36.8010    1.0000 </r>
       <r>  -36.7402    1.0000 </r>
       <r>  -36.7299    1.0000 </r>
       <r>  -36.6986    1.0000 </r>
       <r>  -36.6574    1.0000 </r>
       <r>  -36.6373    1.0000 </r>
       <r>  -36.5992    1.0000 </r>
       <r>  -36.5718    1.0000 </r>
       <r>  -36.5586    1.0000 </r>
       <r>  -36.5499    1.0000 </r>
       <r>  -36.5094    1.0000 </r>
       <r>  -36.4939    1.0000 </r>
       <r>  -36.4793    1.0000 </r>
       <r>  -36.4475    1.0000 </r>
       <r>  -36.4314    1.0000 </r>
       <r>  -36.4122    1.0000 </r>
       <r>  -36.3917    1.0000 </r>
       <r>  -36.3727    1.0000 </r>
       <r>  -36.3254    1.0000 </r>
       <r>  -36.3172    1.0000 </r>
       <r>  -36.2905    1.0000 </r>
       <r>  -36.2574    1.0000 </r>
       <r>  -36.2304    1.0000 </r>
       <r>  -15.3998    1.0000 </r>
       <r>  -15.1503    1.0000 </r>
       <r>  -14.9228    1.0000 </r>
       <r>  -14.4363    1.0000 </r>
       <r>  -14.4021    1.0000 </r>
       <r>  -14.3456    1.0000 </r>
       <r>  -14.1248    1.0000 </r>
       <r>  -14.0730    1.0000 </r>
       <r>  -14.0202    1.0000 </r>
       <r>  -13.9625    1.0000 </r>
       <r>  -13.9083    1.0000 </r>
       <r>  -13.8188    1.0000 </r>
       <r>  -13.7949    1.0000 </r>
       <r>  -13.6995    1.0000 </r>
       <r>  -13.6059    1.0000 </r>
       <r>  -13.2998    1.0000 </r>
       <r>  -13.2443    1.0000 </r>
       <r>  -13.1998    1.0000 </r>
       <r>   -7.5816    1.0000 </r>
       <r>   -7.4054    1.0000 </r>
       <r>   -7.3577    1.0000 </r>
       <r>   -6.9068    1.0000 </r>
       <r>   -6.8648    1.0000 </r>
       <r>   -6.6748    1.0000 </r>
       <r>   -6.6450    1.0000 </r>
       <r>   -6.4889    1.0000 </r>
       <r>   -6.4641    1.0000 </r>
       <r>   -6.3706    1.0000 </r>
       <r>   -6.2705    1.0000 </r>
       <r>   -6.2096    1.0000 </r>
       <r>   -6.1813    1.0000 </r>
       <r>   -6.1171    1.0000 </r>
       <r>   -6.0072    1.0000 </r>
       <r>   -5.7452    1.0000 </r>
       <r>   -5.6650    1.0000 </r>
       <r>   -5.6328    1.0000 </r>
       <r>   -5.5161    1.0000 </r>
       <r>   -5.4242    1.0000 </r>
       <r>   -5.3789    1.0000 </r>
       <r>   -5.3172    1.0000 </r>
       <r>   -5.2489    1.0000 </r>
       <r>   -5.1794    1.0000 </r>
       <r>   -5.0981    1.0000 </r>
       <r>   -5.0530    1.0000 </r>
       <r>   -4.9610    1.0000 </r>
       <r>   -4.9124    1.0000 </r>
       <r>   -4.8757    1.0000 </r>
       <r>   -4.8220    1.0000 </r>
       <r>   -4.6671    1.0000 </r>
       <r>   -4.5999    1.0000 </r>
       <r>   -4.4901    1.0000 </r>
       <r>   -4.4442    1.0000 </r>
       <r>   -4.2843    1.0000 </r>
       <r>   -4.1989    1.0000 </r>
       <r>   -4.1507    1.0000 </r>
       <r>   -4.0890    1.0000 </r>
       <r>   -4.0681    1.0000 </r>
       <r>   -3.9390    1.0000 </r>
       <r>   -3.8788    1.0000 </r>
       <r>   -3.7604    1.0000 </r>
       <r>   -3.6921    1.0000 </r>
       <r>   -3.5406    1.0000 </r>
       <r>   -3.4516    1.0000 </r>
       <r>   -3.2831    1.0000 </r>
       <r>   -3.1860    1.0000 </r>
       <r>   -2.9678    1.0000 </r>
       <r>   -2.9284    1.0000 </r>
       <r>   -2.8858    1.0000 </r>
       <r>   -2.7002    1.0000 </r>
       <r>   -2.4641    1.0000 </r>
       <r>   -2.4035    1.0000 </r>
       <r>   -2.3446    1.0000 </r>
       <r>   -2.2761    1.0000 </r>
       <r>   -2.2086    1.0000 </r>
       <r>   -2.1557    1.0000 </r>
       <r>   -2.1047    1.0000 </r>
       <r>   -2.0114    1.0000 </r>
       <r>   -1.8830    1.0000 </r>
       <r>   -1.8209    1.0000 </r>
       <r>   -1.7053    1.0000 </r>
       <r>   -1.5276    1.0000 </r>
       <r>   -0.6098    0.0000 </r>
       <r>   -0.5167    0.0000 </r>
       <r>   -0.3189    0.0000 </r>
       <r>   -0.1434    0.0000 </r>
       <r>   -0.0428    0.0000 </r>
       <r>    0.0541    0.0000 </r>
       <r>    0.1154    0.0000 </r>
       <r>    0.1743    0.0000 </r>
       <r>    0.2487    0.0000 </r>
       <r>    0.4787    0.0000 </r>
       <r>    0.5588    0.0000 </r>
       <r>    0.6774    0.0000 </r>
       <r>    0.9221    0.0000 </r>
       <r>    1.0289    0.0000 </r>
       <r>    1.0706    0.0000 </r>
       <r>    1.1369    0.0000 </r>
       <r>    1.1714    0.0000 </r>
       <r>    1.2170    0.0000 </r>
       <r>    1.3077    0.0000 </r>
       <r>    1.3386    0.0000 </r>
       <r>    1.4535    0.0000 </r>
       <r>    1.5312    0.0000 </r>
       <r>    1.5958    0.0000 </r>
      </set>
      <set comment="kpoint 9">
       <r>  -62.5805    1.0000 </r>
       <r>  -62.5302    1.0000 </r>
       <r>  -62.5056    1.0000 </r>
       <r>  -62.4608    1.0000 </r>
       <r>  -62.3935    1.0000 </r>
       <r>  -62.3437    1.0000 </r>
       <r>  -62.3239    1.0000 </r>
       <r>  -62.2783    1.0000 </r>
       <r>  -62.2558    1.0000 </r>
       <r>  -36.9506    1.0000 </r>
       <r>  -36.9032    1.0000 </r>
       <r>  -36.8797    1.0000 </r>
       <r>  -36.8345    1.0000 </r>
       <r>  -36.7932    1.0000 </r>
       <r>  -36.7488    1.0000 </r>
       <r>  -36.7371    1.0000 </r>
[...]
       <r>   -5.2858    1.0000 </r>
       <r>   -5.2471    1.0000 </r>
       <r>   -5.1789    1.0000 </r>
       <r>   -5.1486    1.0000 </r>
       <r>   -5.0105    1.0000 </r>
       <r>   -4.9688    1.0000 </r>
       <r>   -4.9630    1.0000 </r>
       <r>   -4.8632    1.0000 </r>
       <r>   -4.7987    1.0000 </r>
       <r>   -4.6282    1.0000 </r>
       <r>   -4.5094    1.0000 </r>
       <r>   -4.4636    1.0000 </r>
       <r>   -4.4002    1.0000 </r>
       <r>   -4.2781    1.0000 </r>
       <r>   -4.2108    1.0000 </r>
       <r>   -4.1599    1.0000 </r>
       <r>   -4.1318    1.0000 </r>
       <r>   -4.0055    1.0000 </r>
       <r>   -3.9382    1.0000 </r>
       <r>   -3.8373    1.0000 </r>
       <r>   -3.8236    1.0000 </r>
       <r>   -3.7601    1.0000 </r>
       <r>   -3.7354    1.0000 </r>
       <r>   -3.4130    1.0000 </r>
       <r>   -3.2370    1.0000 </r>
       <r>   -3.1872    1.0000 </r>
       <r>   -3.1212    1.0000 </r>
       <r>   -2.8298    1.0000 </r>
       <r>   -2.7152    1.0000 </r>
       <r>   -2.6619    1.0000 </r>
       <r>   -2.5337    1.0000 </r>
       <r>   -2.4420    1.0000 </r>
       <r>   -2.3517    1.0000 </r>
       <r>   -2.3134    1.0000 </r>
       <r>   -2.2254    1.0000 </r>
       <r>   -2.0935    1.0000 </r>
       <r>   -2.0473    1.0000 </r>
       <r>   -1.9907    1.0000 </r>
       <r>   -1.9450    1.0000 </r>
       <r>   -1.7605    1.0000 </r>
       <r>   -1.6495    1.0000 </r>
       <r>   -1.5773    1.0000 </r>
       <r>   -0.6300    0.0000 </r>
       <r>   -0.5937    0.0000 </r>
       <r>   -0.3445    0.0000 </r>
       <r>   -0.1214    0.0000 </r>
       <r>   -0.0571    0.0000 </r>
       <r>    0.0009    0.0000 </r>
       <r>    0.1890    0.0000 </r>
       <r>    0.2041    0.0000 </r>
       <r>    0.3141    0.0000 </r>
       <r>    0.5109    0.0000 </r>
       <r>    0.5619    0.0000 </r>
       <r>    0.6608    0.0000 </r>
       <r>    0.8919    0.0000 </r>
       <r>    0.9013    0.0000 </r>
       <r>    1.0524    0.0000 </r>
       <r>    1.1370    0.0000 </r>
       <r>    1.1661    0.0000 </r>
       <r>    1.2323    0.0000 </r>
       <r>    1.2749    0.0000 </r>
       <r>    1.3426    0.0000 </r>
       <r>    1.3858    0.0000 </r>
       <r>    1.4242    0.0000 </r>
       <r>    1.7364    0.0000 </r>
      </set>
     </set>
    </set>
   </array>
  </eigenvalues>
  <separator name="orbital magnetization" >
   <v name="MAGDIPOLOUT">      0.00000000      0.00000000      0.00000000</v>
  </separator>
  <dos>
   <i name="efermi">     -0.96679938 </i>
   <total>
    <array>
     <dimension dim="1">gridpoints</dimension>
     <dimension dim="2">spin</dimension>
     <field>energy</field>
     <field>total</field>
     <field>integrated</field>
     <set>
      <set comment="spin 1">
       <r>   -65.8061     0.0000     0.0000 </r>
       <r>   -65.5695     0.0000     0.0000 </r>
       <r>   -65.3330     0.0000     0.0000 </r>
       <r>   -65.0965     0.0000     0.0000 </r>
       <r>   -64.8599     0.0000     0.0000 </r>
       <r>   -64.6234     0.0000     0.0000 </r>
       <r>   -64.3869     0.0000     0.0000 </r>
       <r>   -64.1503     0.0000     0.0000 </r>
       <r>   -63.9138     0.0000     0.0000 </r>
       <r>   -63.6773     0.0000     0.0000 </r>
       <r>   -63.4407     0.0000     0.0000 </r>
       <r>   -63.2042     0.0000     0.0000 </r>
       <r>   -62.9677     0.0000     0.0000 </r>
       <r>   -62.7311     0.0001     0.0000 </r>
       <r>   -62.4946    22.2260     5.2572 </r>
       <r>   -62.2581    46.6954    16.3021 </r>
       <r>   -62.0215     7.1783    18.0000 </r>
       <r>   -61.7850     0.0000    18.0000 </r>
       <r>   -61.5485     0.0000    18.0000 </r>
       <r>   -61.3120     0.0000    18.0000 </r>
       <r>   -61.0754     0.0000    18.0000 </r>
       <r>   -60.8389     0.0000    18.0000 </r>
       <r>   -60.6024     0.0000    18.0000 </r>
       <r>   -60.3658     0.0000    18.0000 </r>
       <r>   -60.1293     0.0000    18.0000 </r>
       <r>   -59.8928     0.0000    18.0000 </r>
       <r>   -59.6562     0.0000    18.0000 </r>
       <r>   -59.4197     0.0000    18.0000 </r>
       <r>   -59.1832     0.0000    18.0000 </r>
       <r>   -58.9466     0.0000    18.0000 </r>
       <r>   -58.7101     0.0000    18.0000 </r>
       <r>   -58.4736     0.0000    18.0000 </r>
       <r>   -58.2370     0.0000    18.0000 </r>
       <r>   -58.0005     0.0000    18.0000 </r>
       <r>   -57.7640     0.0000    18.0000 </r>
       <r>   -57.5274     0.0000    18.0000 </r>
       <r>   -57.2909     0.0000    18.0000 </r>
       <r>   -57.0544     0.0000    18.0000 </r>
       <r>   -56.8179     0.0000    18.0000 </r>
       <r>   -56.5813     0.0000    18.0000 </r>
       <r>   -56.3448     0.0000    18.0000 </r>
       <r>   -56.1083     0.0000    18.0000 </r>
       <r>   -55.8717     0.0000    18.0000 </r>
       <r>   -55.6352     0.0000    18.0000 </r>
       <r>   -55.3987     0.0000    18.0000 </r>
       <r>   -55.1621     0.0000    18.0000 </r>
       <r>   -54.9256     0.0000    18.0000 </r>
       <r>   -54.6891     0.0000    18.0000 </r>
       <r>   -54.4525     0.0000    18.0000 </r>
       <r>   -54.2160     0.0000    18.0000 </r>
       <r>   -53.9795     0.0000    18.0000 </r>
       <r>   -53.7429     0.0000    18.0000 </r>
       <r>   -53.5064     0.0000    18.0000 </r>
       <r>   -53.2699     0.0000    18.0000 </r>
       <r>   -53.0333     0.0000    18.0000 </r>
       <r>   -52.7968     0.0000    18.0000 </r>
       <r>   -52.5603     0.0000    18.0000 </r>
       <r>   -52.3237     0.0000    18.0000 </r>
       <r>   -52.0872     0.0000    18.0000 </r>
       <r>   -51.8507     0.0000    18.0000 </r>
       <r>   -51.6142     0.0000    18.0000 </r>
       <r>   -51.3776     0.0000    18.0000 </r>
       <r>   -51.1411     0.0000    18.0000 </r>
       <r>   -50.9046     0.0000    18.0000 </r>
       <r>   -50.6680     0.0000    18.0000 </r>
       <r>   -50.4315     0.0000    18.0000 </r>
       <r>   -50.1950     0.0000    18.0000 </r>
       <r>   -49.9584     0.0000    18.0000 </r>
       <r>   -49.7219     0.0000    18.0000 </r>
       <r>   -49.4854     0.0000    18.0000 </r>
       <r>   -49.2488     0.0000    18.0000 </r>
       <r>   -49.0123     0.0000    18.0000 </r>
       <r>   -48.7758     0.0000    18.0000 </r>
       <r>   -48.5392     0.0000    18.0000 </r>
       <r>   -48.3027     0.0000    18.0000 </r>
       <r>   -48.0662     0.0000    18.0000 </r>
       <r>   -47.8296     0.0000    18.0000 </r>
       <r>   -47.5931     0.0000    18.0000 </r>
       <r>   -47.3566     0.0000    18.0000 </r>
       <r>   -47.1201     0.0000    18.0000 </r>
       <r>   -46.8835     0.0000    18.0000 </r>
       <r>   -46.6470     0.0000    18.0000 </r>
       <r>   -46.4105     0.0000    18.0000 </r>
       <r>   -46.1739     0.0000    18.0000 </r>
       <r>   -45.9374     0.0000    18.0000 </r>
       <r>   -45.7009     0.0000    18.0000 </r>
       <r>   -45.4643     0.0000    18.0000 </r>
       <r>   -45.2278     0.0000    18.0000 </r>
       <r>   -44.9913     0.0000    18.0000 </r>
       <r>   -44.7547     0.0000    18.0000 </r>
       <r>   -44.5182     0.0000    18.0000 </r>
       <r>   -44.2817     0.0000    18.0000 </r>
       <r>   -44.0451     0.0000    18.0000 </r>
       <r>   -43.8086     0.0000    18.0000 </r>
       <r>   -43.5721     0.0000    18.0000 </r>
       <r>   -43.3355     0.0000    18.0000 </r>
       <r>   -43.0990     0.0000    18.0000 </r>
       <r>   -42.8625     0.0000    18.0000 </r>
       <r>   -42.6259     0.0000    18.0000 </r>
       <r>   -42.3894     0.0000    18.0000 </r>
       <r>   -42.1529     0.0000    18.0000 </r>
       <r>   -41.9164     0.0000    18.0000 </r>
       <r>   -41.6798     0.0000    18.0000 </r>
       <r>   -41.4433     0.0000    18.0000 </r>
       <r>   -41.2068     0.0000    18.0000 </r>
       <r>   -40.9702     0.0000    18.0000 </r>
       <r>   -40.7337     0.0000    18.0000 </r>
       <r>   -40.4972     0.0000    18.0000 </r>
       <r>   -40.2606     0.0000    18.0000 </r>
       <r>   -40.0241     0.0000    18.0000 </r>
       <r>   -39.7876     0.0000    18.0000 </r>
       <r>   -39.5510     0.0000    18.0000 </r>
       <r>   -39.3145     0.0000    18.0000 </r>
       <r>   -39.0780     0.0000    18.0000 </r>
       <r>   -38.8414     0.0000    18.0000 </r>
       <r>   -38.6049     0.0000    18.0000 </r>
       <r>   -38.3684     0.0000    18.0000 </r>
       <r>   -38.1318     0.0000    18.0000 </r>
       <r>   -37.8953     0.0000    18.0000 </r>
       <r>   -37.6588     0.0000    18.0000 </r>
       <r>   -37.4223     0.0000    18.0000 </r>
       <r>   -37.1857     0.0000    18.0000 </r>
       <r>   -36.9492     5.8570    19.3854 </r>
       <r>   -36.7127    54.7458    32.3345 </r>
       <r>   -36.4761    77.0519    50.5597 </r>
       <r>   -36.2396    81.9662    69.9473 </r>
       <r>   -36.0031     8.6783    72.0000 </r>
       <r>   -35.7665     0.0000    72.0000 </r>
       <r>   -35.5300     0.0000    72.0000 </r>
       <r>   -35.2935     0.0000    72.0000 </r>
       <r>   -35.0569     0.0000    72.0000 </r>
       <r>   -34.8204     0.0000    72.0000 </r>
       <r>   -34.5839     0.0000    72.0000 </r>
       <r>   -34.3473     0.0000    72.0000 </r>
       <r>   -34.1108     0.0000    72.0000 </r>
       <r>   -33.8743     0.0000    72.0000 </r>
       <r>   -33.6377     0.0000    72.0000 </r>
       <r>   -33.4012     0.0000    72.0000 </r>
       <r>   -33.1647     0.0000    72.0000 </r>
       <r>   -32.9281     0.0000    72.0000 </r>
       <r>   -32.6916     0.0000    72.0000 </r>
       <r>   -32.4551     0.0000    72.0000 </r>
       <r>   -32.2186     0.0000    72.0000 </r>
       <r>   -31.9820     0.0000    72.0000 </r>
       <r>   -31.7455     0.0000    72.0000 </r>
       <r>   -31.5090     0.0000    72.0000 </r>
       <r>   -31.2724     0.0000    72.0000 </r>
       <r>   -31.0359     0.0000    72.0000 </r>
       <r>   -30.7994     0.0000    72.0000 </r>
       <r>   -30.5628     0.0000    72.0000 </r>
       <r>   -30.3263     0.0000    72.0000 </r>
       <r>   -30.0898     0.0000    72.0000 </r>
       <r>   -29.8532     0.0000    72.0000 </r>
       <r>   -29.6167     0.0000    72.0000 </r>
       <r>   -29.3802     0.0000    72.0000 </r>
       <r>   -29.1436     0.0000    72.0000 </r>
       <r>   -28.9071     0.0000    72.0000 </r>
       <r>   -28.6706     0.0000    72.0000 </r>
       <r>   -28.4340     0.0000    72.0000 </r>
       <r>   -28.1975     0.0000    72.0000 </r>
       <r>   -27.9610     0.0000    72.0000 </r>
       <r>   -27.7244     0.0000    72.0000 </r>
       <r>   -27.4879     0.0000    72.0000 </r>
       <r>   -27.2514     0.0000    72.0000 </r>
       <r>   -27.0149     0.0000    72.0000 </r>
       <r>   -26.7783     0.0000    72.0000 </r>
       <r>   -26.5418     0.0000    72.0000 </r>
       <r>   -26.3053     0.0000    72.0000 </r>
       <r>   -26.0687     0.0000    72.0000 </r>
       <r>   -25.8322     0.0000    72.0000 </r>
       <r>   -25.5957     0.0000    72.0000 </r>
       <r>   -25.3591     0.0000    72.0000 </r>
       <r>   -25.1226     0.0000    72.0000 </r>
       <r>   -24.8861     0.0000    72.0000 </r>
       <r>   -24.6495     0.0000    72.0000 </r>
       <r>   -24.4130     0.0000    72.0000 </r>
       <r>   -24.1765     0.0000    72.0000 </r>
       <r>   -23.9399     0.0000    72.0000 </r>
       <r>   -23.7034     0.0000    72.0000 </r>
       <r>   -23.4669     0.0000    72.0000 </r>
       <r>   -23.2303     0.0000    72.0000 </r>
       <r>   -22.9938     0.0000    72.0000 </r>
       <r>   -22.7573     0.0000    72.0000 </r>
       <r>   -22.5208     0.0000    72.0000 </r>
       <r>   -22.2842     0.0000    72.0000 </r>
       <r>   -22.0477     0.0000    72.0000 </r>
       <r>   -21.8112     0.0000    72.0000 </r>
       <r>   -21.5746     0.0000    72.0000 </r>
       <r>   -21.3381     0.0000    72.0000 </r>
       <r>   -21.1016     0.0000    72.0000 </r>
       <r>   -20.8650     0.0000    72.0000 </r>
       <r>   -20.6285     0.0000    72.0000 </r>
       <r>   -20.3920     0.0000    72.0000 </r>
       <r>   -20.1554     0.0000    72.0000 </r>
       <r>   -19.9189     0.0000    72.0000 </r>
       <r>   -19.6824     0.0000    72.0000 </r>
       <r>   -19.4458     0.0000    72.0000 </r>
       <r>   -19.2093     0.0000    72.0000 </r>
       <r>   -18.9728     0.0000    72.0000 </r>
       <r>   -18.7362     0.0000    72.0000 </r>
       <r>   -18.4997     0.0000    72.0000 </r>
       <r>   -18.2632     0.0000    72.0000 </r>
       <r>   -18.0266     0.0000    72.0000 </r>
       <r>   -17.7901     0.0000    72.0000 </r>
       <r>   -17.5536     0.0000    72.0000 </r>
       <r>   -17.3171     0.0000    72.0000 </r>
       <r>   -17.0805     0.0000    72.0000 </r>
       <r>   -16.8440     0.0000    72.0000 </r>
       <r>   -16.6075     0.0000    72.0000 </r>
       <r>   -16.3709     0.0000    72.0000 </r>
       <r>   -16.1344     0.0000    72.0000 </r>
       <r>   -15.8979     0.0000    72.0000 </r>
       <r>   -15.6613     0.9215    72.2180 </r>
       <r>   -15.4248     4.2572    73.2249 </r>
       <r>   -15.1883     4.5122    74.2922 </r>
       <r>   -14.9517     5.5291    75.6000 </r>
       <r>   -14.7152     8.1366    77.5246 </r>
       <r>   -14.4787     5.3905    78.7996 </r>
       <r>   -14.2421    23.3221    84.3160 </r>
       <r>   -14.0056    24.2420    90.0500 </r>
       <r>   -13.7691    28.1692    96.7129 </r>
       <r>   -13.5325    21.2112   101.7300 </r>
       <r>   -13.2960    11.1069   104.3572 </r>
       <r>   -13.0595    15.3940   107.9983 </r>
       <r>   -12.8230     0.0070   108.0000 </r>
       <r>   -12.5864     0.0000   108.0000 </r>
       <r>   -12.3499     0.0000   108.0000 </r>
       <r>   -12.1134     0.0000   108.0000 </r>
       <r>   -11.8768     0.0000   108.0000 </r>
       <r>   -11.6403     0.0000   108.0000 </r>
       <r>   -11.4038     0.0000   108.0000 </r>
       <r>   -11.1672     0.0000   108.0000 </r>
       <r>   -10.9307     0.0000   108.0000 </r>
       <r>   -10.6942     0.0000   108.0000 </r>
       <r>   -10.4576     0.0000   108.0000 </r>
       <r>   -10.2211     0.0000   108.0000 </r>
       <r>    -9.9846     0.0000   108.0000 </r>
       <r>    -9.7480     0.0000   108.0000 </r>
       <r>    -9.5115     0.0000   108.0000 </r>
       <r>    -9.2750     0.0000   108.0000 </r>
       <r>    -9.0384     0.0000   108.0000 </r>
       <r>    -8.8019     0.0000   108.0000 </r>
       <r>    -8.5654     0.0000   108.0000 </r>
       <r>    -8.3288     0.0000   108.0000 </r>
       <r>    -8.0923     0.0000   108.0000 </r>
       <r>    -7.8558     0.0000   108.0000 </r>
       <r>    -7.6193     1.3525   108.3199 </r>
       <r>    -7.3827     7.7371   110.1500 </r>
       <r>    -7.1462    10.1927   112.5609 </r>
       <r>    -6.9097    13.8722   115.8421 </r>
       <r>    -6.6731    18.4130   120.1973 </r>
       <r>    -6.4366    24.2084   125.9234 </r>
       <r>    -6.2001    28.3444   132.6277 </r>
       <r>    -5.9635    23.3004   138.1390 </r>
       <r>    -5.7270    15.7596   141.8667 </r>
       <r>    -5.4905    21.2313   146.8885 </r>
       <r>    -5.2539    24.5478   152.6949 </r>
       <r>    -5.0174    32.9280   160.4834 </r>
       <r>    -4.7809    24.5220   166.2836 </r>
       <r>    -4.5443    17.9649   170.5329 </r>
       <r>    -4.3078    24.7055   176.3765 </r>
       <r>    -4.0713    29.6729   183.3951 </r>
       <r>    -3.8347    23.8249   189.0305 </r>
       <r>    -3.5982    24.8699   194.9130 </r>
       <r>    -3.3617    13.1542   198.0244 </r>
       <r>    -3.1252    15.7223   201.7432 </r>
       <r>    -2.8886    14.6466   205.2076 </r>
       <r>    -2.6521    19.7302   209.8744 </r>
       <r>    -2.4156    17.8444   214.0951 </r>
       <r>    -2.1790    26.6871   220.4075 </r>
       <r>    -1.9425    22.5951   225.7520 </r>
       <r>    -1.7060    20.0639   230.4977 </r>
       <r>    -1.4694    11.7564   233.2785 </r>
       <r>    -1.2329     3.0199   233.9928 </r>
       <r>    -0.9964     0.0305   234.0000 </r>
       <r>    -0.7598     0.4590   234.1086 </r>
       <r>    -0.5233     8.7613   236.1809 </r>
       <r>    -0.2868    12.3973   239.1133 </r>
       <r>    -0.0502    17.2201   243.1864 </r>
       <r>     0.1863    27.2582   249.6338 </r>
       <r>     0.4228    12.8848   252.6814 </r>
       <r>     0.6594    17.9564   256.9287 </r>
       <r>     0.8959    10.8910   259.5048 </r>
       <r>     1.1324    25.4943   265.5350 </r>
       <r>     1.3690    32.0108   273.1065 </r>
       <r>     1.6055    18.1372   277.3966 </r>
       <r>     1.8420     9.2472   279.5838 </r>
       <r>     2.0785     1.7595   280.0000 </r>
       <r>     2.3151     0.0000   280.0000 </r>
       <r>     2.5516     0.0000   280.0000 </r>
       <r>     2.7881     0.0000   280.0000 </r>
       <r>     3.0247     0.0000   280.0000 </r>
       <r>     3.2612     0.0000   280.0000 </r>
       <r>     3.4977     0.0000   280.0000 </r>
       <r>     3.7343     0.0000   280.0000 </r>
       <r>     3.9708     0.0000   280.0000 </r>
       <r>     4.2073     0.0000   280.0000 </r>
       <r>     4.4439     0.0000   280.0000 </r>
       <r>     4.6804     0.0000   280.0000 </r>
       <r>     4.9169     0.0000   280.0000 </r>
       <r>     5.1535     0.0000   280.0000 </r>
      </set>
     </set>
    </array>
   </total>
  </dos>
 </calculation>
 <structure name="finalpos" >
  <crystal>
   <varray name="basis" >
    <v>       9.56424100       0.00000000       0.00000000 </v>
    <v>      -4.78212000       8.28287600       0.00000000 </v>
    <v>      -0.00000000       0.00000000      18.15827300 </v>
   </varray>
   <i name="volume">   1438.48789588 </i>
   <varray name="rec_basis" >
    <v>       0.10455613       0.06036550       0.00000000 </v>
    <v>       0.00000000       0.12073101      -0.00000000 </v>
    <v>       0.00000000      -0.00000000       0.05507132 </v>
   </varray>
  </crystal>
  <varray name="positions" >
   <v>       0.03146162       0.02650678       0.49662503 </v>
   <v>       0.31565156       0.35584964       0.49789945 </v>
   <v>       0.64347215       0.01275354       0.49996442 </v>
   <v>       0.31879851       0.96406610       0.50039273 </v>
   <v>       0.36568270       0.69475171       0.49937465 </v>
   <v>       0.70988730       0.34184464       0.50023000 </v>
   <v>       0.98103245       0.29530039       0.49885432 </v>
   <v>       0.63455897       0.62342140       0.49838974 </v>
   <v>       0.98518883       0.68853202       0.50170550 </v>
   <v>       0.55383088       0.11538301       0.58649336 </v>
   <v>       0.22931054       0.11689162       0.58531561 </v>
   <v>       0.11082185       0.22803339       0.40238364 </v>
   <v>       0.22377231       0.45532804       0.58746707 </v>
   <v>       0.11198929       0.54535483       0.43444615 </v>
   <v>       0.21300455       0.76437103       0.58718687 </v>
   <v>       0.12540297       0.89525184       0.40803360 </v>
   <v>       0.44119157       0.21524549       0.43604156 </v>
   <v>       0.44808658       0.89247895       0.40485925 </v>
   <v>       0.54220773       0.41881770       0.58521937 </v>
   <v>       0.57639229       0.78187254       0.58336284 </v>
   <v>       0.43905075       0.55547057       0.40587252 </v>
   <v>       0.87238183       0.09083888       0.58649292 </v>
   <v>       0.78367008       0.22160778       0.40823906 </v>
   <v>       0.91374294       0.45013537       0.58754595 </v>
   <v>       0.79162461       0.56709740       0.41262263 </v>
   <v>       0.88735047       0.79223217       0.58287057 </v>
   <v>       0.77885175       0.88453509       0.43518671 </v>
  </varray>
 </structure>
</modeling>
