<?xml version="1.0" encoding="ISO-8859-1"?>
<modeling>
 <generator>
  <i name="program" type="string">vasp </i>
  <i name="version" type="string">6.2.0  </i>
  <i name="subversion" type="string">18Jan21 (build Mar 25 2021 14:28:09) complex                          parallel </i>
  <i name="platform" type="string">LinuxGNU </i>
  <i name="date" type="string">2022 08 19 </i>
  <i name="time" type="string">10:28:34 </i>
 </generator>
 <incar>
  <i type="string" name="SYSTEM">al</i>
  <i type="int" name="ISTART">     0</i>
  <i type="string" name="PREC">Accurate</i>
  <i type="string" name="ALGO">Normal</i>
  <i type="int" name="NSIM">     8</i>
  <i type="int" name="NELM">   200</i>
  <i type="int" name="IBRION">    -1</i>
  <i name="EDIFF">      0.00000100</i>
  <i type="int" name="NSW">     0</i>
  <i name="ENCUT">    600.00000000</i>
  <i type="string" name="LREAL">Auto</i>
  <i type="int" name="ISMEAR">     0</i>
  <i name="SIGMA">      0.05000000</i>
  <i type="int" name="LMAXPAW">    -1</i>
  <i type="logical" name="LWAVE"> F  </i>
  <i type="logical" name="LCHARG"> T  </i>
  <i type="string" name="GGA">PE</i>
 </incar>
 <primitive_cell>
  <structure name="primitive_cell" >
   <crystal>
    <varray name="basis" >
     <v>       8.07809510       0.00000000       0.00000000 </v>
     <v>       0.00000000       8.07809510       0.00000000 </v>
     <v>       0.00000000       0.00000000       8.07809510 </v>
    </varray>
    <i name="volume">    527.14110776 </i>
    <varray name="rec_basis" >
     <v>       0.12379156       0.00000000       0.00000000 </v>
     <v>       0.00000000       0.12379156       0.00000000 </v>
     <v>       0.00000000       0.00000000       0.12379156 </v>
    </varray>
   </crystal>
   <varray name="positions" >
    <v>       0.00602384       0.01138551       0.02857095 </v>
    <v>       0.00811293       0.25154080       0.25833665 </v>
    <v>       0.25446158       0.01398775       0.24492704 </v>
    <v>       0.25902468       0.23681481       0.98447433 </v>
    <v>       0.98867693       0.99875610       0.50186948 </v>
    <v>       0.99911610       0.25262983       0.76167862 </v>
    <v>       0.26639548       0.98009624       0.75658226 </v>
    <v>       0.24681212       0.25094805       0.50427106 </v>
    <v>       0.99081808       0.50451664       0.00346157 </v>
    <v>       0.99293211       0.75273159       0.25138103 </v>
    <v>       0.24587872       0.52604599       0.23685692 </v>
    <v>       0.24252397       0.75566192       0.00119213 </v>
    <v>       0.99596075       0.49232695       0.51138585 </v>
    <v>       0.01400325       0.74106546       0.75751790 </v>
    <v>       0.24966454       0.49687662       0.74275771 </v>
    <v>       0.22599274       0.75487209       0.48627293 </v>
    <v>       0.50927527       0.99020841       0.98691969 </v>
    <v>       0.49019751       0.24403379       0.22933056 </v>
    <v>       0.73322373       0.99427384       0.23405628 </v>
    <v>       0.75031087       0.23922334       0.00505722 </v>
    <v>       0.49962383       0.98363670       0.48265384 </v>
    <v>       0.49916773       0.24340373       0.73334908 </v>
    <v>       0.76205151       0.98544386       0.74848028 </v>
    <v>       0.75316810       0.24720924       0.50530909 </v>
    <v>       0.48783405       0.51498518       0.98620004 </v>
    <v>       0.50966059       0.74447679       0.23563417 </v>
    <v>       0.75475176       0.49249493       0.25027102 </v>
    <v>       0.76912896       0.74765911       0.98807177 </v>
    <v>       0.48207405       0.52250828       0.50357572 </v>
    <v>       0.51449264       0.74928615       0.75047791 </v>
    <v>       0.73648549       0.50293520       0.74003734 </v>
    <v>       0.75277216       0.74533720       0.49844152 </v>
   </varray>
  </structure>
  <varray name="primitive_index" >
   <v type="int" >        1 </v>
   <v type="int" >        2 </v>
   <v type="int" >        3 </v>
   <v type="int" >        4 </v>
   <v type="int" >        5 </v>
   <v type="int" >        6 </v>
   <v type="int" >        7 </v>
   <v type="int" >        8 </v>
   <v type="int" >        9 </v>
   <v type="int" >       10 </v>
   <v type="int" >       11 </v>
   <v type="int" >       12 </v>
   <v type="int" >       13 </v>
   <v type="int" >       14 </v>
   <v type="int" >       15 </v>
   <v type="int" >       16 </v>
   <v type="int" >       17 </v>
   <v type="int" >       18 </v>
   <v type="int" >       19 </v>
   <v type="int" >       20 </v>
   <v type="int" >       21 </v>
   <v type="int" >       22 </v>
   <v type="int" >       23 </v>
   <v type="int" >       24 </v>
   <v type="int" >       25 </v>
   <v type="int" >       26 </v>
   <v type="int" >       27 </v>
   <v type="int" >       28 </v>
   <v type="int" >       29 </v>
   <v type="int" >       30 </v>
   <v type="int" >       31 </v>
   <v type="int" >       32 </v>
  </varray>
 </primitive_cell>
 <kpoints>
  <generation param="Gamma">
   <v type="int" name="divisions">       9        9        9 </v>
   <v name="usershift">      0.00000000       0.00000000       0.00000000 </v>
   <v name="genvec1">      0.11111111       0.00000000       0.00000000 </v>
   <v name="genvec2">      0.00000000       0.11111111       0.00000000 </v>
   <v name="genvec3">      0.00000000       0.00000000       0.11111111 </v>
   <v name="shift">      0.00000000       0.00000000       0.00000000 </v>
  </generation>
  <varray name="kpointlist" >
   <v>       0.00000000       0.00000000       0.00000000 </v>
   <v>       0.11111111       0.00000000       0.00000000 </v>
   <v>       0.00000000       0.11111111       0.00000000 </v>
   <v>       0.00000000       0.00000000       0.11111111 </v>
   <v>       0.22222222       0.00000000       0.00000000 </v>
   <v>       0.00000000       0.22222222       0.00000000 </v>
   <v>       0.00000000       0.00000000       0.22222222 </v>
   <v>       0.33333333       0.00000000       0.00000000 </v>
   <v>       0.00000000       0.33333333       0.00000000 </v>
   <v>       0.00000000       0.00000000       0.33333333 </v>
   <v>       0.44444444       0.00000000       0.00000000 </v>
   <v>       0.00000000       0.44444444       0.00000000 </v>
   <v>       0.00000000       0.00000000       0.44444444 </v>
   <v>       0.11111111       0.11111111       0.00000000 </v>
   <v>       0.00000000       0.11111111       0.11111111 </v>
   <v>       0.11111111       0.00000000       0.11111111 </v>
   <v>      -0.11111111       0.11111111       0.00000000 </v>
   <v>      -0.11111111       0.00000000       0.11111111 </v>
   <v>       0.00000000      -0.11111111       0.11111111 </v>
   <v>       0.22222222       0.11111111       0.00000000 </v>
   <v>       0.00000000       0.22222222       0.11111111 </v>
   <v>       0.11111111       0.00000000       0.22222222 </v>
   <v>      -0.11111111       0.22222222       0.00000000 </v>
   <v>      -0.22222222       0.00000000       0.11111111 </v>
   <v>       0.00000000       0.11111111       0.22222222 </v>
   <v>       0.00000000      -0.22222222       0.11111111 </v>
   <v>      -0.11111111       0.00000000       0.22222222 </v>
   <v>       0.22222222       0.00000000       0.11111111 </v>
   <v>       0.00000000      -0.11111111       0.22222222 </v>
   <v>       0.22222222      -0.11111111       0.00000000 </v>
   <v>       0.11111111       0.22222222       0.00000000 </v>
   <v>       0.33333333       0.11111111       0.00000000 </v>
   <v>       0.00000000       0.33333333       0.11111111 </v>
   <v>       0.11111111       0.00000000       0.33333333 </v>
   <v>      -0.11111111       0.33333333       0.00000000 </v>
   <v>      -0.33333333       0.00000000       0.11111111 </v>
   <v>       0.00000000       0.11111111       0.33333333 </v>
   <v>       0.00000000      -0.33333333       0.11111111 </v>
   <v>      -0.11111111       0.00000000       0.33333333 </v>
   <v>       0.33333333       0.00000000       0.11111111 </v>
   <v>       0.00000000      -0.11111111       0.33333333 </v>
   <v>       0.33333333      -0.11111111       0.00000000 </v>
   <v>       0.11111111       0.33333333       0.00000000 </v>
   <v>       0.44444444       0.11111111       0.00000000 </v>
   <v>       0.00000000       0.44444444       0.11111111 </v>
   <v>       0.11111111       0.00000000       0.44444444 </v>
   <v>      -0.11111111       0.44444444       0.00000000 </v>
   <v>      -0.44444444       0.00000000       0.11111111 </v>
   <v>       0.00000000       0.11111111       0.44444444 </v>
   <v>       0.00000000      -0.44444444       0.11111111 </v>
   <v>      -0.11111111       0.00000000       0.44444444 </v>
   <v>       0.44444444       0.00000000       0.11111111 </v>
   <v>       0.00000000      -0.11111111       0.44444444 </v>
   <v>       0.44444444      -0.11111111       0.00000000 </v>
   <v>       0.11111111       0.44444444       0.00000000 </v>
   <v>       0.22222222       0.22222222       0.00000000 </v>
   <v>       0.00000000       0.22222222       0.22222222 </v>
   <v>       0.22222222       0.00000000       0.22222222 </v>
   <v>      -0.22222222       0.22222222       0.00000000 </v>
   <v>      -0.22222222       0.00000000       0.22222222 </v>
   <v>       0.00000000      -0.22222222       0.22222222 </v>
   <v>       0.33333333       0.22222222       0.00000000 </v>
   <v>       0.00000000       0.33333333       0.22222222 </v>
   <v>       0.22222222       0.00000000       0.33333333 </v>
   <v>      -0.22222222       0.33333333       0.00000000 </v>
   <v>      -0.33333333       0.00000000       0.22222222 </v>
   <v>       0.00000000       0.22222222       0.33333333 </v>
   <v>       0.00000000      -0.33333333       0.22222222 </v>
   <v>      -0.22222222       0.00000000       0.33333333 </v>
   <v>       0.33333333       0.00000000       0.22222222 </v>
   <v>       0.00000000      -0.22222222       0.33333333 </v>
   <v>       0.33333333      -0.22222222       0.00000000 </v>
   <v>       0.22222222       0.33333333       0.00000000 </v>
   <v>       0.44444444       0.22222222       0.00000000 </v>
   <v>       0.00000000       0.44444444       0.22222222 </v>
   <v>       0.22222222       0.00000000       0.44444444 </v>
   <v>      -0.22222222       0.44444444       0.00000000 </v>
   <v>      -0.44444444       0.00000000       0.22222222 </v>
   <v>       0.00000000       0.22222222       0.44444444 </v>
   <v>       0.00000000      -0.44444444       0.22222222 </v>
   <v>      -0.22222222       0.00000000       0.44444444 </v>
   <v>       0.44444444       0.00000000       0.22222222 </v>
   <v>       0.00000000      -0.22222222       0.44444444 </v>
   <v>       0.44444444      -0.22222222       0.00000000 </v>
   <v>       0.22222222       0.44444444       0.00000000 </v>
   <v>       0.33333333       0.33333333       0.00000000 </v>
   <v>       0.00000000       0.33333333       0.33333333 </v>
   <v>       0.33333333       0.00000000       0.33333333 </v>
   <v>      -0.33333333       0.33333333       0.00000000 </v>
   <v>      -0.33333333       0.00000000       0.33333333 </v>
   <v>       0.00000000      -0.33333333       0.33333333 </v>
   <v>       0.44444444       0.33333333       0.00000000 </v>
   <v>       0.00000000       0.44444444       0.33333333 </v>
   <v>       0.33333333       0.00000000       0.44444444 </v>
   <v>      -0.33333333       0.44444444       0.00000000 </v>
   <v>      -0.44444444       0.00000000       0.33333333 </v>
   <v>       0.00000000       0.33333333       0.44444444 </v>
   <v>       0.00000000      -0.44444444       0.33333333 </v>
   <v>      -0.33333333       0.00000000       0.44444444 </v>
   <v>       0.44444444       0.00000000       0.33333333 </v>
   <v>       0.00000000      -0.33333333       0.44444444 </v>
   <v>       0.44444444      -0.33333333       0.00000000 </v>
   <v>       0.33333333       0.44444444       0.00000000 </v>
   <v>       0.44444444       0.44444444       0.00000000 </v>
   <v>       0.00000000       0.44444444       0.44444444 </v>
   <v>       0.44444444       0.00000000       0.44444444 </v>
   <v>      -0.44444444       0.44444444       0.00000000 </v>
   <v>      -0.44444444       0.00000000       0.44444444 </v>
   <v>       0.00000000      -0.44444444       0.44444444 </v>
   <v>       0.11111111       0.11111111       0.11111111 </v>
   <v>      -0.11111111       0.11111111       0.11111111 </v>
   <v>      -0.11111111      -0.11111111       0.11111111 </v>
   <v>       0.11111111      -0.11111111       0.11111111 </v>
   <v>       0.22222222       0.11111111       0.11111111 </v>
   <v>       0.11111111       0.22222222       0.11111111 </v>
   <v>       0.11111111       0.11111111       0.22222222 </v>
   <v>      -0.11111111       0.22222222       0.11111111 </v>
   <v>      -0.22222222       0.11111111       0.11111111 </v>
   <v>      -0.11111111       0.11111111       0.22222222 </v>
   <v>      -0.22222222      -0.11111111       0.11111111 </v>
   <v>      -0.11111111      -0.22222222       0.11111111 </v>
   <v>      -0.11111111      -0.11111111       0.22222222 </v>
   <v>       0.11111111      -0.22222222       0.11111111 </v>
   <v>       0.22222222      -0.11111111       0.11111111 </v>
   <v>       0.11111111      -0.11111111       0.22222222 </v>
   <v>       0.33333333       0.11111111       0.11111111 </v>
   <v>       0.11111111       0.33333333       0.11111111 </v>
   <v>       0.11111111       0.11111111       0.33333333 </v>
   <v>      -0.11111111       0.33333333       0.11111111 </v>
   <v>      -0.33333333       0.11111111       0.11111111 </v>
   <v>      -0.11111111       0.11111111       0.33333333 </v>
   <v>      -0.33333333      -0.11111111       0.11111111 </v>
   <v>      -0.11111111      -0.33333333       0.11111111 </v>
   <v>      -0.11111111      -0.11111111       0.33333333 </v>
   <v>       0.11111111      -0.33333333       0.11111111 </v>
   <v>       0.33333333      -0.11111111       0.11111111 </v>
   <v>       0.11111111      -0.11111111       0.33333333 </v>
   <v>       0.44444444       0.11111111       0.11111111 </v>
   <v>       0.11111111       0.44444444       0.11111111 </v>
   <v>       0.11111111       0.11111111       0.44444444 </v>
   <v>      -0.11111111       0.44444444       0.11111111 </v>
   <v>      -0.44444444       0.11111111       0.11111111 </v>
   <v>      -0.11111111       0.11111111       0.44444444 </v>
   <v>      -0.44444444      -0.11111111       0.11111111 </v>
   <v>      -0.11111111      -0.44444444       0.11111111 </v>
   <v>      -0.11111111      -0.11111111       0.44444444 </v>
   <v>       0.11111111      -0.44444444       0.11111111 </v>
   <v>       0.44444444      -0.11111111       0.11111111 </v>
   <v>       0.11111111      -0.11111111       0.44444444 </v>
   <v>       0.22222222       0.22222222       0.11111111 </v>
   <v>       0.11111111       0.22222222       0.22222222 </v>
   <v>       0.22222222       0.11111111       0.22222222 </v>
   <v>      -0.22222222       0.22222222       0.11111111 </v>
   <v>      -0.22222222       0.11111111       0.22222222 </v>
   <v>      -0.11111111       0.22222222       0.22222222 </v>
   <v>      -0.22222222      -0.22222222       0.11111111 </v>
   <v>      -0.11111111      -0.22222222       0.22222222 </v>
   <v>      -0.22222222      -0.11111111       0.22222222 </v>
   <v>       0.22222222      -0.22222222       0.11111111 </v>
   <v>       0.22222222      -0.11111111       0.22222222 </v>
   <v>       0.11111111      -0.22222222       0.22222222 </v>
   <v>       0.33333333       0.22222222       0.11111111 </v>
   <v>       0.11111111       0.33333333       0.22222222 </v>
   <v>       0.22222222       0.11111111       0.33333333 </v>
   <v>      -0.22222222       0.33333333       0.11111111 </v>
   <v>      -0.33333333       0.11111111       0.22222222 </v>
   <v>      -0.11111111       0.22222222       0.33333333 </v>
   <v>      -0.33333333      -0.22222222       0.11111111 </v>
   <v>      -0.11111111      -0.33333333       0.22222222 </v>
   <v>      -0.22222222      -0.11111111       0.33333333 </v>
   <v>       0.22222222      -0.33333333       0.11111111 </v>
   <v>       0.33333333      -0.11111111       0.22222222 </v>
   <v>       0.11111111      -0.22222222       0.33333333 </v>
   <v>       0.11111111      -0.33333333      -0.22222222 </v>
   <v>       0.22222222      -0.11111111      -0.33333333 </v>
   <v>       0.33333333      -0.22222222      -0.11111111 </v>
   <v>       0.11111111       0.22222222      -0.33333333 </v>
   <v>       0.22222222       0.33333333      -0.11111111 </v>
   <v>       0.33333333       0.11111111      -0.22222222 </v>
   <v>      -0.22222222       0.11111111      -0.33333333 </v>
   <v>      -0.33333333       0.22222222      -0.11111111 </v>
   <v>      -0.11111111       0.33333333      -0.22222222 </v>
   <v>      -0.33333333      -0.11111111      -0.22222222 </v>
   <v>      -0.22222222      -0.33333333      -0.11111111 </v>
   <v>      -0.11111111      -0.22222222      -0.33333333 </v>
   <v>       0.44444444       0.22222222       0.11111111 </v>
   <v>       0.11111111       0.44444444       0.22222222 </v>
   <v>       0.22222222       0.11111111       0.44444444 </v>
   <v>      -0.22222222       0.44444444       0.11111111 </v>
   <v>      -0.44444444       0.11111111       0.22222222 </v>
   <v>      -0.11111111       0.22222222       0.44444444 </v>
   <v>      -0.44444444      -0.22222222       0.11111111 </v>
   <v>      -0.11111111      -0.44444444       0.22222222 </v>
   <v>      -0.22222222      -0.11111111       0.44444444 </v>
   <v>       0.22222222      -0.44444444       0.11111111 </v>
   <v>       0.44444444      -0.11111111       0.22222222 </v>
   <v>       0.11111111      -0.22222222       0.44444444 </v>
   <v>       0.11111111      -0.44444444      -0.22222222 </v>
   <v>       0.22222222      -0.11111111      -0.44444444 </v>
   <v>       0.44444444      -0.22222222      -0.11111111 </v>
   <v>       0.11111111       0.22222222      -0.44444444 </v>
   <v>       0.22222222       0.44444444      -0.11111111 </v>
   <v>       0.44444444       0.11111111      -0.22222222 </v>
   <v>      -0.22222222       0.11111111      -0.44444444 </v>
   <v>      -0.44444444       0.22222222      -0.11111111 </v>
   <v>      -0.11111111       0.44444444      -0.22222222 </v>
   <v>      -0.44444444      -0.11111111      -0.22222222 </v>
   <v>      -0.22222222      -0.44444444      -0.11111111 </v>
   <v>      -0.11111111      -0.22222222      -0.44444444 </v>
   <v>       0.33333333       0.33333333       0.11111111 </v>
   <v>       0.11111111       0.33333333       0.33333333 </v>
   <v>       0.33333333       0.11111111       0.33333333 </v>
   <v>      -0.33333333       0.33333333       0.11111111 </v>
   <v>      -0.33333333       0.11111111       0.33333333 </v>
   <v>      -0.11111111       0.33333333       0.33333333 </v>
   <v>      -0.33333333      -0.33333333       0.11111111 </v>
   <v>      -0.11111111      -0.33333333       0.33333333 </v>
   <v>      -0.33333333      -0.11111111       0.33333333 </v>
   <v>       0.33333333      -0.33333333       0.11111111 </v>
   <v>       0.33333333      -0.11111111       0.33333333 </v>
   <v>       0.11111111      -0.33333333       0.33333333 </v>
   <v>       0.44444444       0.33333333       0.11111111 </v>
   <v>       0.11111111       0.44444444       0.33333333 </v>
   <v>       0.33333333       0.11111111       0.44444444 </v>
   <v>      -0.33333333       0.44444444       0.11111111 </v>
   <v>      -0.44444444       0.11111111       0.33333333 </v>
   <v>      -0.11111111       0.33333333       0.44444444 </v>
   <v>      -0.44444444      -0.33333333       0.11111111 </v>
   <v>      -0.11111111      -0.44444444       0.33333333 </v>
   <v>      -0.33333333      -0.11111111       0.44444444 </v>
   <v>       0.33333333      -0.44444444       0.11111111 </v>
   <v>       0.44444444      -0.11111111       0.33333333 </v>
   <v>       0.11111111      -0.33333333       0.44444444 </v>
   <v>       0.11111111      -0.44444444      -0.33333333 </v>
   <v>       0.33333333      -0.11111111      -0.44444444 </v>
   <v>       0.44444444      -0.33333333      -0.11111111 </v>
   <v>       0.11111111       0.33333333      -0.44444444 </v>
   <v>       0.33333333       0.44444444      -0.11111111 </v>
   <v>       0.44444444       0.11111111      -0.33333333 </v>
   <v>      -0.33333333       0.11111111      -0.44444444 </v>
   <v>      -0.44444444       0.33333333      -0.11111111 </v>
   <v>      -0.11111111       0.44444444      -0.33333333 </v>
   <v>      -0.44444444      -0.11111111      -0.33333333 </v>
   <v>      -0.33333333      -0.44444444      -0.11111111 </v>
   <v>      -0.11111111      -0.33333333      -0.44444444 </v>
   <v>       0.44444444       0.44444444       0.11111111 </v>
   <v>       0.11111111       0.44444444       0.44444444 </v>
   <v>       0.44444444       0.11111111       0.44444444 </v>
   <v>      -0.44444444       0.44444444       0.11111111 </v>
   <v>      -0.44444444       0.11111111       0.44444444 </v>
   <v>      -0.11111111       0.44444444       0.44444444 </v>
   <v>      -0.44444444      -0.44444444       0.11111111 </v>
   <v>      -0.11111111      -0.44444444       0.44444444 </v>
   <v>      -0.44444444      -0.11111111       0.44444444 </v>
   <v>       0.44444444      -0.44444444       0.11111111 </v>
   <v>       0.44444444      -0.11111111       0.44444444 </v>
   <v>       0.11111111      -0.44444444       0.44444444 </v>
   <v>       0.22222222       0.22222222       0.22222222 </v>
   <v>      -0.22222222       0.22222222       0.22222222 </v>
   <v>      -0.22222222      -0.22222222       0.22222222 </v>
   <v>       0.22222222      -0.22222222       0.22222222 </v>
   <v>       0.33333333       0.22222222       0.22222222 </v>
   <v>       0.22222222       0.33333333       0.22222222 </v>
   <v>       0.22222222       0.22222222       0.33333333 </v>
   <v>      -0.22222222       0.33333333       0.22222222 </v>
   <v>      -0.33333333       0.22222222       0.22222222 </v>
   <v>      -0.22222222       0.22222222       0.33333333 </v>
   <v>      -0.33333333      -0.22222222       0.22222222 </v>
   <v>      -0.22222222      -0.33333333       0.22222222 </v>
   <v>      -0.22222222      -0.22222222       0.33333333 </v>
   <v>       0.22222222      -0.33333333       0.22222222 </v>
   <v>       0.33333333      -0.22222222       0.22222222 </v>
   <v>       0.22222222      -0.22222222       0.33333333 </v>
   <v>       0.44444444       0.22222222       0.22222222 </v>
   <v>       0.22222222       0.44444444       0.22222222 </v>
   <v>       0.22222222       0.22222222       0.44444444 </v>
   <v>      -0.22222222       0.44444444       0.22222222 </v>
   <v>      -0.44444444       0.22222222       0.22222222 </v>
   <v>      -0.22222222       0.22222222       0.44444444 </v>
   <v>      -0.44444444      -0.22222222       0.22222222 </v>
   <v>      -0.22222222      -0.44444444       0.22222222 </v>
   <v>      -0.22222222      -0.22222222       0.44444444 </v>
   <v>       0.22222222      -0.44444444       0.22222222 </v>
   <v>       0.44444444      -0.22222222       0.22222222 </v>
   <v>       0.22222222      -0.22222222       0.44444444 </v>
   <v>       0.33333333       0.33333333       0.22222222 </v>
   <v>       0.22222222       0.33333333       0.33333333 </v>
   <v>       0.33333333       0.22222222       0.33333333 </v>
   <v>      -0.33333333       0.33333333       0.22222222 </v>
   <v>      -0.33333333       0.22222222       0.33333333 </v>
   <v>      -0.22222222       0.33333333       0.33333333 </v>
   <v>      -0.33333333      -0.33333333       0.22222222 </v>
   <v>      -0.22222222      -0.33333333       0.33333333 </v>
   <v>      -0.33333333      -0.22222222       0.33333333 </v>
   <v>       0.33333333      -0.33333333       0.22222222 </v>
   <v>       0.33333333      -0.22222222       0.33333333 </v>
   <v>       0.22222222      -0.33333333       0.33333333 </v>
   <v>       0.44444444       0.33333333       0.22222222 </v>
   <v>       0.22222222       0.44444444       0.33333333 </v>
   <v>       0.33333333       0.22222222       0.44444444 </v>
   <v>      -0.33333333       0.44444444       0.22222222 </v>
   <v>      -0.44444444       0.22222222       0.33333333 </v>
   <v>      -0.22222222       0.33333333       0.44444444 </v>
   <v>      -0.44444444      -0.33333333       0.22222222 </v>
   <v>      -0.22222222      -0.44444444       0.33333333 </v>
   <v>      -0.33333333      -0.22222222       0.44444444 </v>
   <v>       0.33333333      -0.44444444       0.22222222 </v>
   <v>       0.44444444      -0.22222222       0.33333333 </v>
   <v>       0.22222222      -0.33333333       0.44444444 </v>
   <v>       0.22222222      -0.44444444      -0.33333333 </v>
   <v>       0.33333333      -0.22222222      -0.44444444 </v>
   <v>       0.44444444      -0.33333333      -0.22222222 </v>
   <v>       0.22222222       0.33333333      -0.44444444 </v>
   <v>       0.33333333       0.44444444      -0.22222222 </v>
   <v>       0.44444444       0.22222222      -0.33333333 </v>
   <v>      -0.33333333       0.22222222      -0.44444444 </v>
   <v>      -0.44444444       0.33333333      -0.22222222 </v>
   <v>      -0.22222222       0.44444444      -0.33333333 </v>
   <v>      -0.44444444      -0.22222222      -0.33333333 </v>
   <v>      -0.33333333      -0.44444444      -0.22222222 </v>
   <v>      -0.22222222      -0.33333333      -0.44444444 </v>
   <v>       0.44444444       0.44444444       0.22222222 </v>
   <v>       0.22222222       0.44444444       0.44444444 </v>
   <v>       0.44444444       0.22222222       0.44444444 </v>
   <v>      -0.44444444       0.44444444       0.22222222 </v>
   <v>      -0.44444444       0.22222222       0.44444444 </v>
   <v>      -0.22222222       0.44444444       0.44444444 </v>
   <v>      -0.44444444      -0.44444444       0.22222222 </v>
   <v>      -0.22222222      -0.44444444       0.44444444 </v>
   <v>      -0.44444444      -0.22222222       0.44444444 </v>
   <v>       0.44444444      -0.44444444       0.22222222 </v>
   <v>       0.44444444      -0.22222222       0.44444444 </v>
   <v>       0.22222222      -0.44444444       0.44444444 </v>
   <v>       0.33333333       0.33333333       0.33333333 </v>
   <v>      -0.33333333       0.33333333       0.33333333 </v>
   <v>      -0.33333333      -0.33333333       0.33333333 </v>
   <v>       0.33333333      -0.33333333       0.33333333 </v>
   <v>       0.44444444       0.33333333       0.33333333 </v>
   <v>       0.33333333       0.44444444       0.33333333 </v>
   <v>       0.33333333       0.33333333       0.44444444 </v>
   <v>      -0.33333333       0.44444444       0.33333333 </v>
   <v>      -0.44444444       0.33333333       0.33333333 </v>
   <v>      -0.33333333       0.33333333       0.44444444 </v>
   <v>      -0.44444444      -0.33333333       0.33333333 </v>
   <v>      -0.33333333      -0.44444444       0.33333333 </v>
   <v>      -0.33333333      -0.33333333       0.44444444 </v>
   <v>       0.33333333      -0.44444444       0.33333333 </v>
   <v>       0.44444444      -0.33333333       0.33333333 </v>
   <v>       0.33333333      -0.33333333       0.44444444 </v>
   <v>       0.44444444       0.44444444       0.33333333 </v>
   <v>       0.33333333       0.44444444       0.44444444 </v>
   <v>       0.44444444       0.33333333       0.44444444 </v>
   <v>      -0.44444444       0.44444444       0.33333333 </v>
   <v>      -0.44444444       0.33333333       0.44444444 </v>
   <v>      -0.33333333       0.44444444       0.44444444 </v>
   <v>      -0.44444444      -0.44444444       0.33333333 </v>
   <v>      -0.33333333      -0.44444444       0.44444444 </v>
   <v>      -0.44444444      -0.33333333       0.44444444 </v>
   <v>       0.44444444      -0.44444444       0.33333333 </v>
   <v>       0.44444444      -0.33333333       0.44444444 </v>
   <v>       0.33333333      -0.44444444       0.44444444 </v>
   <v>       0.44444444       0.44444444       0.44444444 </v>
   <v>      -0.44444444       0.44444444       0.44444444 </v>
   <v>      -0.44444444      -0.44444444       0.44444444 </v>
   <v>       0.44444444      -0.44444444       0.44444444 </v>
  </varray>
  <varray name="weights" >
   <v>       0.00137174 </v>
   <v>       0.00274348 </v>
   <v>       0.00274348 </v>
   <v>       0.00274348 </v>
   <v>       0.00274348 </v>
   <v>       0.00274348 </v>
   <v>       0.00274348 </v>
   <v>       0.00274348 </v>
   <v>       0.00274348 </v>
   <v>       0.00274348 </v>
   <v>       0.00274348 </v>
   <v>       0.00274348 </v>
   <v>       0.00274348 </v>
   <v>       0.00274348 </v>
   <v>       0.00274348 </v>
   <v>       0.00274348 </v>
   <v>       0.00274348 </v>
   <v>       0.00274348 </v>
   <v>       0.00274348 </v>
   <v>       0.00274348 </v>
   <v>       0.00274348 </v>
   <v>       0.00274348 </v>
   <v>       0.00274348 </v>
   <v>       0.00274348 </v>
   <v>       0.00274348 </v>
   <v>       0.00274348 </v>
   <v>       0.00274348 </v>
   <v>       0.00274348 </v>
   <v>       0.00274348 </v>
   <v>       0.00274348 </v>
   <v>       0.00274348 </v>
   <v>       0.00274348 </v>
   <v>       0.00274348 </v>
   <v>       0.00274348 </v>
   <v>       0.00274348 </v>
   <v>       0.00274348 </v>
   <v>       0.00274348 </v>
   <v>       0.00274348 </v>
   <v>       0.00274348 </v>
   <v>       0.00274348 </v>
   <v>       0.00274348 </v>
   <v>       0.00274348 </v>
   <v>       0.00274348 </v>
   <v>       0.00274348 </v>
   <v>       0.00274348 </v>
   <v>       0.00274348 </v>
   <v>       0.00274348 </v>
   <v>       0.00274348 </v>
   <v>       0.00274348 </v>
   <v>       0.00274348 </v>
   <v>       0.00274348 </v>
   <v>       0.00274348 </v>
   <v>       0.00274348 </v>
   <v>       0.00274348 </v>
   <v>       0.00274348 </v>
   <v>       0.00274348 </v>
   <v>       0.00274348 </v>
   <v>       0.00274348 </v>
   <v>       0.00274348 </v>
   <v>       0.00274348 </v>
   <v>       0.00274348 </v>
   <v>       0.00274348 </v>
   <v>       0.00274348 </v>
   <v>       0.00274348 </v>
   <v>       0.00274348 </v>
   <v>       0.00274348 </v>
   <v>       0.00274348 </v>
   <v>       0.00274348 </v>
   <v>       0.00274348 </v>
   <v>       0.00274348 </v>
   <v>       0.00274348 </v>
   <v>       0.00274348 </v>
   <v>       0.00274348 </v>
   <v>       0.00274348 </v>
   <v>       0.00274348 </v>
   <v>       0.00274348 </v>
   <v>       0.00274348 </v>
   <v>       0.00274348 </v>
   <v>       0.00274348 </v>
   <v>       0.00274348 </v>
   <v>       0.00274348 </v>
   <v>       0.00274348 </v>
   <v>       0.00274348 </v>
   <v>       0.00274348 </v>
   <v>       0.00274348 </v>
   <v>       0.00274348 </v>
   <v>       0.00274348 </v>
   <v>       0.00274348 </v>
   <v>       0.00274348 </v>
   <v>       0.00274348 </v>
   <v>       0.00274348 </v>
   <v>       0.00274348 </v>
   <v>       0.00274348 </v>
   <v>       0.00274348 </v>
   <v>       0.00274348 </v>
   <v>       0.00274348 </v>
   <v>       0.00274348 </v>
   <v>       0.00274348 </v>
   <v>       0.00274348 </v>
   <v>       0.00274348 </v>
   <v>       0.00274348 </v>
   <v>       0.00274348 </v>
   <v>       0.00274348 </v>
   <v>       0.00274348 </v>
   <v>       0.00274348 </v>
   <v>       0.00274348 </v>
   <v>       0.00274348 </v>
   <v>       0.00274348 </v>
   <v>       0.00274348 </v>
   <v>       0.00274348 </v>
   <v>       0.00274348 </v>
   <v>       0.00274348 </v>
   <v>       0.00274348 </v>
   <v>       0.00274348 </v>
   <v>       0.00274348 </v>
   <v>       0.00274348 </v>
   <v>       0.00274348 </v>
   <v>       0.00274348 </v>
   <v>       0.00274348 </v>
   <v>       0.00274348 </v>
   <v>       0.00274348 </v>
   <v>       0.00274348 </v>
   <v>       0.00274348 </v>
   <v>       0.00274348 </v>
   <v>       0.00274348 </v>
   <v>       0.00274348 </v>
   <v>       0.00274348 </v>
   <v>       0.00274348 </v>
   <v>       0.00274348 </v>
   <v>       0.00274348 </v>
   <v>       0.00274348 </v>
   <v>       0.00274348 </v>
   <v>       0.00274348 </v>
   <v>       0.00274348 </v>
   <v>       0.00274348 </v>
   <v>       0.00274348 </v>
   <v>       0.00274348 </v>
   <v>       0.00274348 </v>
   <v>       0.00274348 </v>
   <v>       0.00274348 </v>
   <v>       0.00274348 </v>
   <v>       0.00274348 </v>
   <v>       0.00274348 </v>
   <v>       0.00274348 </v>
   <v>       0.00274348 </v>
   <v>       0.00274348 </v>
   <v>       0.00274348 </v>
   <v>       0.00274348 </v>
   <v>       0.00274348 </v>
   <v>       0.00274348 </v>
   <v>       0.00274348 </v>
   <v>       0.00274348 </v>
   <v>       0.00274348 </v>
   <v>       0.00274348 </v>
   <v>       0.00274348 </v>
   <v>       0.00274348 </v>
   <v>       0.00274348 </v>
   <v>       0.00274348 </v>
   <v>       0.00274348 </v>
   <v>       0.00274348 </v>
   <v>       0.00274348 </v>
   <v>       0.00274348 </v>
   <v>       0.00274348 </v>
   <v>       0.00274348 </v>
   <v>       0.00274348 </v>
   <v>       0.00274348 </v>
   <v>       0.00274348 </v>
   <v>       0.00274348 </v>
   <v>       0.00274348 </v>
   <v>       0.00274348 </v>
   <v>       0.00274348 </v>
   <v>       0.00274348 </v>
   <v>       0.00274348 </v>
   <v>       0.00274348 </v>
   <v>       0.00274348 </v>
   <v>       0.00274348 </v>
   <v>       0.00274348 </v>
   <v>       0.00274348 </v>
   <v>       0.00274348 </v>
   <v>       0.00274348 </v>
   <v>       0.00274348 </v>
   <v>       0.00274348 </v>
   <v>       0.00274348 </v>
   <v>       0.00274348 </v>
   <v>       0.00274348 </v>
   <v>       0.00274348 </v>
   <v>       0.00274348 </v>
   <v>       0.00274348 </v>
   <v>       0.00274348 </v>
   <v>       0.00274348 </v>
   <v>       0.00274348 </v>
   <v>       0.00274348 </v>
   <v>       0.00274348 </v>
   <v>       0.00274348 </v>
   <v>       0.00274348 </v>
   <v>       0.00274348 </v>
   <v>       0.00274348 </v>
   <v>       0.00274348 </v>
   <v>       0.00274348 </v>
   <v>       0.00274348 </v>
   <v>       0.00274348 </v>
   <v>       0.00274348 </v>
   <v>       0.00274348 </v>
   <v>       0.00274348 </v>
   <v>       0.00274348 </v>
   <v>       0.00274348 </v>
   <v>       0.00274348 </v>
   <v>       0.00274348 </v>
   <v>       0.00274348 </v>
   <v>       0.00274348 </v>
   <v>       0.00274348 </v>
   <v>       0.00274348 </v>
   <v>       0.00274348 </v>
   <v>       0.00274348 </v>
   <v>       0.00274348 </v>
   <v>       0.00274348 </v>
   <v>       0.00274348 </v>
   <v>       0.00274348 </v>
   <v>       0.00274348 </v>
   <v>       0.00274348 </v>
   <v>       0.00274348 </v>
   <v>       0.00274348 </v>
   <v>       0.00274348 </v>
   <v>       0.00274348 </v>
   <v>       0.00274348 </v>
   <v>       0.00274348 </v>
   <v>       0.00274348 </v>
   <v>       0.00274348 </v>
   <v>       0.00274348 </v>
   <v>       0.00274348 </v>
   <v>       0.00274348 </v>
   <v>       0.00274348 </v>
   <v>       0.00274348 </v>
   <v>       0.00274348 </v>
   <v>       0.00274348 </v>
   <v>       0.00274348 </v>
   <v>       0.00274348 </v>
   <v>       0.00274348 </v>
   <v>       0.00274348 </v>
   <v>       0.00274348 </v>
   <v>       0.00274348 </v>
   <v>       0.00274348 </v>
   <v>       0.00274348 </v>
   <v>       0.00274348 </v>
   <v>       0.00274348 </v>
   <v>       0.00274348 </v>
   <v>       0.00274348 </v>
   <v>       0.00274348 </v>
   <v>       0.00274348 </v>
   <v>       0.00274348 </v>
   <v>       0.00274348 </v>
   <v>       0.00274348 </v>
   <v>       0.00274348 </v>
   <v>       0.00274348 </v>
   <v>       0.00274348 </v>
   <v>       0.00274348 </v>
   <v>       0.00274348 </v>
   <v>       0.00274348 </v>
   <v>       0.00274348 </v>
   <v>       0.00274348 </v>
   <v>       0.00274348 </v>
   <v>       0.00274348 </v>
   <v>       0.00274348 </v>
   <v>       0.00274348 </v>
   <v>       0.00274348 </v>
   <v>       0.00274348 </v>
   <v>       0.00274348 </v>
   <v>       0.00274348 </v>
   <v>       0.00274348 </v>
   <v>       0.00274348 </v>
   <v>       0.00274348 </v>
   <v>       0.00274348 </v>
   <v>       0.00274348 </v>
   <v>       0.00274348 </v>
   <v>       0.00274348 </v>
   <v>       0.00274348 </v>
   <v>       0.00274348 </v>
   <v>       0.00274348 </v>
   <v>       0.00274348 </v>
   <v>       0.00274348 </v>
   <v>       0.00274348 </v>
   <v>       0.00274348 </v>
   <v>       0.00274348 </v>
   <v>       0.00274348 </v>
   <v>       0.00274348 </v>
   <v>       0.00274348 </v>
   <v>       0.00274348 </v>
   <v>       0.00274348 </v>
   <v>       0.00274348 </v>
   <v>       0.00274348 </v>
   <v>       0.00274348 </v>
   <v>       0.00274348 </v>
   <v>       0.00274348 </v>
   <v>       0.00274348 </v>
   <v>       0.00274348 </v>
   <v>       0.00274348 </v>
   <v>       0.00274348 </v>
   <v>       0.00274348 </v>
   <v>       0.00274348 </v>
   <v>       0.00274348 </v>
   <v>       0.00274348 </v>
   <v>       0.00274348 </v>
   <v>       0.00274348 </v>
   <v>       0.00274348 </v>
   <v>       0.00274348 </v>
   <v>       0.00274348 </v>
   <v>       0.00274348 </v>
   <v>       0.00274348 </v>
   <v>       0.00274348 </v>
   <v>       0.00274348 </v>
   <v>       0.00274348 </v>
   <v>       0.00274348 </v>
   <v>       0.00274348 </v>
   <v>       0.00274348 </v>
   <v>       0.00274348 </v>
   <v>       0.00274348 </v>
   <v>       0.00274348 </v>
   <v>       0.00274348 </v>
   <v>       0.00274348 </v>
   <v>       0.00274348 </v>
   <v>       0.00274348 </v>
   <v>       0.00274348 </v>
   <v>       0.00274348 </v>
   <v>       0.00274348 </v>
   <v>       0.00274348 </v>
   <v>       0.00274348 </v>
   <v>       0.00274348 </v>
   <v>       0.00274348 </v>
   <v>       0.00274348 </v>
   <v>       0.00274348 </v>
   <v>       0.00274348 </v>
   <v>       0.00274348 </v>
   <v>       0.00274348 </v>
   <v>       0.00274348 </v>
   <v>       0.00274348 </v>
   <v>       0.00274348 </v>
   <v>       0.00274348 </v>
   <v>       0.00274348 </v>
   <v>       0.00274348 </v>
   <v>       0.00274348 </v>
   <v>       0.00274348 </v>
   <v>       0.00274348 </v>
   <v>       0.00274348 </v>
   <v>       0.00274348 </v>
   <v>       0.00274348 </v>
   <v>       0.00274348 </v>
   <v>       0.00274348 </v>
   <v>       0.00274348 </v>
   <v>       0.00274348 </v>
   <v>       0.00274348 </v>
   <v>       0.00274348 </v>
   <v>       0.00274348 </v>
   <v>       0.00274348 </v>
   <v>       0.00274348 </v>
   <v>       0.00274348 </v>
   <v>       0.00274348 </v>
   <v>       0.00274348 </v>
   <v>       0.00274348 </v>
   <v>       0.00274348 </v>
   <v>       0.00274348 </v>
   <v>       0.00274348 </v>
   <v>       0.00274348 </v>
   <v>       0.00274348 </v>
   <v>       0.00274348 </v>
   <v>       0.00274348 </v>
  </varray>
 </kpoints>
 <parameters>
  <separator name="general" >
   <i type="string" name="SYSTEM">al</i>
   <i type="logical" name="LCOMPAT"> F  </i>
  </separator>
  <separator name="electronic" >
   <i type="string" name="PREC">accura</i>
   <i name="ENMAX">    600.00000000</i>
   <i name="ENAUG">    291.05200000</i>
   <i name="EDIFF">      0.00000100</i>
   <i type="int" name="IALGO">    38</i>
   <i type="int" name="IWAVPR">    10</i>
   <i type="int" name="NBANDS">    72</i>
   <i type="int" name="NBANDSLOW">    -1</i>
   <i type="int" name="NBANDSHIGH">    -1</i>
   <i name="NELECT">     96.00000000</i>
   <i type="int" name="TURBO">     0</i>
   <i type="int" name="IRESTART">     0</i>
   <i type="int" name="NREBOOT">     0</i>
   <i type="int" name="NMIN">     0</i>
   <i name="EREF">      0.00000000</i>
   <separator name="electronic smearing" >
    <i type="int" name="ISMEAR">     0</i>
    <i name="SIGMA">      0.05000000</i>
    <i name="KSPACING">      0.50000000</i>
    <i type="logical" name="KGAMMA"> T  </i>
    <i type="logical" name="KBLOWUP"> T  </i>
   </separator>
   <separator name="electronic projectors" >
    <i type="logical" name="LREAL"> T  </i>
    <v name="ROPT">     -0.00025000</v>
    <i type="int" name="LMAXPAW">    -1</i>
    <i type="int" name="LMAXMIX">     2</i>
    <i type="logical" name="NLSPLINE"> F  </i>
   </separator>
   <separator name="electronic startup" >
    <i type="int" name="ISTART">     0</i>
    <i type="int" name="ICHARG">     2</i>
    <i type="int" name="INIWAV">     1</i>
   </separator>
   <separator name="electronic spin" >
    <i type="int" name="ISPIN">     1</i>
    <i type="logical" name="LNONCOLLINEAR"> F  </i>
    <v name="MAGMOM">      1.00000000      1.00000000      1.00000000      1.00000000      1.00000000      1.00000000      1.00000000      1.00000000      1.00000000      1.00000000      1.00000000      1.00000000      1.00000000      1.00000000      1.00000000      1.00000000      1.00000000      1.00000000      1.00000000      1.00000000
      1.00000000      1.00000000      1.00000000      1.00000000      1.00000000      1.00000000      1.00000000      1.00000000      1.00000000      1.00000000      1.00000000      1.00000000</v>
    <i name="NUPDOWN">     -1.00000000</i>
    <i type="logical" name="LSORBIT"> F  </i>
    <v name="SAXIS">      0.00000000      0.00000000      1.00000000</v>
    <i type="logical" name="LSPIRAL"> F  </i>
    <v name="QSPIRAL">      0.00000000      0.00000000      0.00000000</v>
    <i type="logical" name="LZEROZ"> F  </i>
   </separator>
   <separator name="electronic exchange-correlation" >
    <i type="logical" name="LASPH"> F  </i>
    <i type="logical" name="LMETAGGA"> F  </i>
   </separator>
   <separator name="electronic convergence" >
    <i type="int" name="NELM">   200</i>
    <i type="int" name="NELMDL">    -5</i>
    <i type="int" name="NELMIN">     2</i>
    <i name="ENINI">    600.00000000</i>
    <separator name="electronic convergence detail" >
     <i type="logical" name="LDIAG"> T  </i>
     <i type="logical" name="LSUBROT"> F  </i>
     <i name="WEIMIN">      0.00000000</i>
     <i name="EBREAK">      0.00000000</i>
     <i name="DEPER">      0.30000000</i>
     <i type="int" name="NRMM">     4</i>
     <i name="TIME">      0.40000000</i>
    </separator>
   </separator>
   <separator name="electronic mixer" >
    <i name="AMIX">      0.40000000</i>
    <i name="BMIX">      1.00000000</i>
    <i name="AMIN">      0.10000000</i>
    <i name="AMIX_MAG">      1.60000000</i>
    <i name="BMIX_MAG">      1.00000000</i>
    <separator name="electronic mixer details" >
     <i type="int" name="IMIX">     4</i>
     <i type="logical" name="MIXFIRST"> F  </i>
     <i type="int" name="MAXMIX">   -45</i>
     <i name="WC">    100.00000000</i>
     <i type="int" name="INIMIX">     1</i>
     <i type="int" name="MIXPRE">     1</i>
     <i type="int" name="MREMOVE">     5</i>
    </separator>
   </separator>
   <separator name="electronic dipolcorrection" >
    <i type="logical" name="LDIPOL"> F  </i>
    <i type="logical" name="LMONO"> F  </i>
    <i type="int" name="IDIPOL">     0</i>
    <i name="EPSILON">      1.00000000</i>
    <v name="DIPOL">   -100.00000000   -100.00000000   -100.00000000</v>
    <i name="EFIELD">      0.00000000</i>
   </separator>
  </separator>
  <separator name="grids" >
   <i type="int" name="NGX">    70</i>
   <i type="int" name="NGY">    70</i>
   <i type="int" name="NGZ">    70</i>
   <i type="int" name="NGXF">   140</i>
   <i type="int" name="NGYF">   140</i>
   <i type="int" name="NGZF">   140</i>
   <i type="logical" name="ADDGRID"> F  </i>
  </separator>
  <separator name="ionic" >
   <i type="int" name="NSW">     0</i>
   <i type="int" name="IBRION">    -1</i>
   <i type="int" name="MDALGO">     0</i>
   <i type="int" name="ISIF">     2</i>
   <i name="PSTRESS">      0.00000000</i>
   <i name="EDIFFG">      0.00001000</i>
   <i type="int" name="NFREE">     0</i>
   <i name="POTIM">      0.50000000</i>
   <i name="SMASS">     -3.00000000</i>
   <i name="SCALEE">      1.00000000</i>
  </separator>
  <separator name="ionic md" >
   <i name="TEBEG">      0.00010000</i>
   <i name="TEEND">      0.00010000</i>
   <i type="int" name="NBLOCK">     1</i>
   <i type="int" name="KBLOCK">     1</i>
   <i type="int" name="NPACO">   256</i>
   <i name="APACO">     16.00000000</i>
  </separator>
  <separator name="symmetry" >
   <i type="int" name="ISYM">     2</i>
   <i name="SYMPREC">      0.00001000</i>
  </separator>
  <separator name="dos" >
   <i type="int" name="LORBIT">     0</i>
   <v name="RWIGS">     -1.00000000</v>
   <i type="int" name="NEDOS">   301</i>
   <i name="EMIN">     10.00000000</i>
   <i name="EMAX">    -10.00000000</i>
   <i name="EFERMI">      0.00000000</i>
  </separator>
  <separator name="writing" >
   <i type="int" name="NWRITE">     2</i>
   <i type="logical" name="LWAVE"> F  </i>
   <i type="logical" name="LDOWNSAMPLE"> F  </i>
   <i type="logical" name="LCHARG"> T  </i>
   <i type="logical" name="LPARD"> F  </i>
   <i type="logical" name="LVTOT"> F  </i>
   <i type="logical" name="LVHAR"> F  </i>
   <i type="logical" name="LELF"> F  </i>
   <i type="logical" name="LOPTICS"> F  </i>
   <v name="STM">      0.00000000      0.00000000      0.00000000      0.00000000      0.00000000      0.00000000      0.00000000</v>
  </separator>
  <separator name="performance" >
   <i type="int" name="NPAR">     8</i>
   <i type="int" name="NSIM">     8</i>
   <i type="int" name="NBLK">    -1</i>
   <i type="logical" name="LPLANE"> T  </i>
   <i type="logical" name="LSCALAPACK"> T  </i>
   <i type="logical" name="LSCAAWARE"> F  </i>
   <i type="logical" name="LSCALU"> F  </i>
   <i type="logical" name="LASYNC"> F  </i>
   <i type="logical" name="LORBITALREAL"> F  </i>
  </separator>
  <separator name="miscellaneous" >
   <i type="int" name="IDIOT">     3</i>
   <i type="int" name="PHON_NSTRUCT">    -1</i>
   <i type="logical" name="LMUSIC"> F  </i>
   <v name="POMASS">     26.98100000</v>
   <v name="DARWINR">      0.00000000</v>
   <v name="DARWINV">      1.00000000</v>
   <i type="logical" name="LCORR"> T  </i>
  </separator>
  <i type="logical" name="GGA_COMPAT"> T  </i>
  <i type="logical" name="LBERRY"> F  </i>
  <i type="int" name="ICORELEVEL">     0</i>
  <i type="logical" name="LDAU"> F  </i>
  <i type="int" name="I_CONSTRAINED_M">     0</i>
  <separator name="electronic exchange-correlation" >
   <i type="string" name="GGA">PE</i>
   <i type="int" name="VOSKOWN">     0</i>
   <i type="logical" name="LHFCALC"> F  </i>
   <i type="string" name="PRECFOCK"></i>
   <i type="logical" name="LSYMGRAD"> F  </i>
   <i type="logical" name="LHFONE"> F  </i>
   <i type="logical" name="LRHFCALC"> F  </i>
   <i type="logical" name="LTHOMAS"> F  </i>
   <i type="logical" name="LMODELHF"> F  </i>
   <i type="logical" name="LFOCKACE"> F  </i>
   <i name="ENCUT4O">     -1.00000000</i>
   <i type="int" name="EXXOEP">     0</i>
   <i type="int" name="FOURORBIT">     0</i>
   <i name="AEXX">      0.00000000</i>
   <i name="HFALPHA">      0.00000000</i>
   <i name="MCALPHA">      0.00000000</i>
   <i name="ALDAX">      1.00000000</i>
   <i name="AGGAX">      1.00000000</i>
   <i name="ALDAC">      1.00000000</i>
   <i name="AGGAC">      1.00000000</i>
   <i type="int" name="NKREDX">     1</i>
   <i type="int" name="NKREDY">     1</i>
   <i type="int" name="NKREDZ">     1</i>
   <i type="logical" name="SHIFTRED"> F  </i>
   <i type="logical" name="ODDONLY"> F  </i>
   <i type="logical" name="EVENONLY"> F  </i>
   <i type="int" name="LMAXFOCK">     0</i>
   <i type="int" name="NMAXFOCKAE">     0</i>
   <i type="logical" name="LFOCKAEDFT"> F  </i>
   <i name="HFSCREEN">      0.00000000</i>
   <i name="HFSCREENC">      0.00000000</i>
   <i type="int" name="NBANDSGWLOW">     0</i>
  </separator>
  <separator name="vdW DFT" >
   <i type="logical" name="LUSE_VDW"> F  </i>
   <i name="Zab_VDW">     -0.84910000</i>
   <i name="PARAM1">      0.12340000</i>
   <i name="PARAM2">      1.00000000</i>
   <i name="PARAM3">      0.00000000</i>
  </separator>
  <separator name="model GW" >
   <i type="int" name="MODEL_GW">     0</i>
   <i name="MODEL_EPS0">      9.88389577</i>
   <i name="MODEL_ALPHA">      1.00000000</i>
  </separator>
  <separator name="linear response parameters" >
   <i type="logical" name="LEPSILON"> F  </i>
   <i type="logical" name="LRPA"> F  </i>
   <i type="logical" name="LNABLA"> F  </i>
   <i type="logical" name="LVEL"> F  </i>
   <i type="int" name="KINTER">     0</i>
   <i name="CSHIFT">      0.10000000</i>
   <i name="OMEGAMAX">     -1.00000000</i>
   <i name="DEG_THRESHOLD">      0.00200000</i>
   <i name="RTIME">     -0.10000000</i>
   <i name="WPLASMAI">      0.00000000</i>
   <v name="DFIELD">      0.00000000      0.00000000      0.00000000</v>
   <v name="WPLASMA">      0.00000000      0.00000000      0.00000000      0.00000000      0.00000000      0.00000000      0.00000000      0.00000000      0.00000000</v>
  </separator>
  <separator name="orbital magnetization" >
   <i type="logical" name="NUCIND"> F  </i>
   <v name="MAGPOS">      0.00000000      0.00000000      0.00000000</v>
   <i type="logical" name="LNICSALL"> T  </i>
   <i type="logical" name="ORBITALMAG"> F  </i>
   <i type="logical" name="LMAGBLOCH"> F  </i>
   <i type="logical" name="LCHIMAG"> F  </i>
   <i type="logical" name="LGAUGE"> T  </i>
   <i type="int" name="MAGATOM">     0</i>
   <v name="MAGDIPOL">      0.00000000      0.00000000      0.00000000</v>
   <v name="AVECCONST">      0.00000000      0.00000000      0.00000000</v>
  </separator>
  <separator name="response functions" >
   <i type="logical" name="LFINITE_TEMPERATURE"> F  </i>
   <i type="logical" name="LADDER"> F  </i>
   <i type="logical" name="LRPAFORCE"> F  </i>
   <i type="logical" name="LFXC"> F  </i>
   <i type="logical" name="LHARTREE"> T  </i>
   <i type="int" name="IBSE">     0</i>
   <v type="int" name="KPOINT">    -1     0     0     0</v>
   <i type="logical" name="LTCTC"> F  </i>
   <i type="logical" name="LTCTE"> F  </i>
   <i type="logical" name="LTETE"> F  </i>
   <i type="logical" name="LTRIPLET"> F  </i>
   <i type="logical" name="LFXCEPS"> F  </i>
   <i type="logical" name="LFXHEG"> F  </i>
   <i type="int" name="NATURALO">     2</i>
   <i type="logical" name="LHOLEGF"> F  </i>
   <i type="logical" name="L2ORDER"> F  </i>
   <i type="logical" name="LDMP1"> F  </i>
   <i type="logical" name="LMP2LT"> F  </i>
   <i type="logical" name="LSMP2LT"> F  </i>
   <i type="logical" name="LGWLF"> F  </i>
   <i name="ENCUTGW">     -2.00000000</i>
   <i name="ENCUTGWSOFT">     -2.00000000</i>
   <i name="ENCUTLF">     -1.00000000</i>
   <i type="logical" name="LESF_SPLINES"> F  </i>
   <i type="int" name="LMAXMP2">    -1</i>
   <i name="SCISSOR">      0.00000000</i>
   <i type="int" name="NOMEGA">     0</i>
   <i type="int" name="NOMEGAR">     0</i>
   <i type="int" name="NBANDSGW">    -1</i>
   <i type="int" name="NBANDSO">    -1</i>
   <i type="int" name="NBANDSV">    -1</i>
   <i type="int" name="NELM">   200</i>
   <i type="int" name="NELMHF">     1</i>
   <i type="int" name="DIM">     3</i>
   <i type="int" name="IESPILON">     4</i>
   <i type="int" name="ANTIRES">     0</i>
   <i name="OMEGAMAX">    -30.00000000</i>
   <i name="OMEGAMIN">    -30.00000000</i>
   <i name="OMEGATL">   -200.00000000</i>
   <i type="int" name="OMEGAGRID">     0</i>
   <i name="CSHIFT">     -0.10000000</i>
   <i type="logical" name="LSELFENERGY"> F  </i>
   <i type="logical" name="LSPECTRAL"> F  </i>
   <i type="logical" name="LSPECTRALGW"> F  </i>
   <i type="logical" name="LSINGLES"> F  </i>
   <i type="logical" name="LFERMIGW"> F  </i>
   <i type="logical" name="ODDONLYGW"> F  </i>
   <i type="logical" name="EVENONLYGW"> F  </i>
   <i type="int" name="NKREDLFX">     1</i>
   <i type="int" name="NKREDLFY">     1</i>
   <i type="int" name="NKREDLFZ">     1</i>
   <i type="int" name="MAXMEM">  2800</i>
   <i type="int" name="TELESCOPE">     0</i>
   <i type="int" name="NTAUPAR">    -1</i>
   <i type="int" name="NOMEGAPAR">    -1</i>
   <i name="DAMP_NEWTON">      0.80000001</i>
   <i name="LAMBDA">      1.00000000</i>
  </separator>
  <separator name="External order field" >
   <i name="OFIELD_KAPPA">      0.00000000</i>
   <v name="OFIELD_K">      0.00000000      0.00000000      0.00000000</v>
   <i name="OFIELD_Q6_NEAR">      0.00000000</i>
   <i name="OFIELD_Q6_FAR">      0.00000000</i>
   <i name="OFIELD_A">      0.00000000</i>
  </separator>
 </parameters>
 <atominfo>
  <atoms>      32 </atoms>
  <types>       1 </types>
  <array name="atoms" >
   <dimension dim="1">ion</dimension>
   <field type="string">element</field>
   <field type="int">atomtype</field>
   <set>
    <rc><c>Al</c><c>   1</c></rc>
    <rc><c>Al</c><c>   1</c></rc>
    <rc><c>Al</c><c>   1</c></rc>
    <rc><c>Al</c><c>   1</c></rc>
    <rc><c>Al</c><c>   1</c></rc>
    <rc><c>Al</c><c>   1</c></rc>
    <rc><c>Al</c><c>   1</c></rc>
    <rc><c>Al</c><c>   1</c></rc>
    <rc><c>Al</c><c>   1</c></rc>
    <rc><c>Al</c><c>   1</c></rc>
    <rc><c>Al</c><c>   1</c></rc>
    <rc><c>Al</c><c>   1</c></rc>
    <rc><c>Al</c><c>   1</c></rc>
    <rc><c>Al</c><c>   1</c></rc>
    <rc><c>Al</c><c>   1</c></rc>
    <rc><c>Al</c><c>   1</c></rc>
    <rc><c>Al</c><c>   1</c></rc>
    <rc><c>Al</c><c>   1</c></rc>
    <rc><c>Al</c><c>   1</c></rc>
    <rc><c>Al</c><c>   1</c></rc>
    <rc><c>Al</c><c>   1</c></rc>
    <rc><c>Al</c><c>   1</c></rc>
    <rc><c>Al</c><c>   1</c></rc>
    <rc><c>Al</c><c>   1</c></rc>
    <rc><c>Al</c><c>   1</c></rc>
    <rc><c>Al</c><c>   1</c></rc>
    <rc><c>Al</c><c>   1</c></rc>
    <rc><c>Al</c><c>   1</c></rc>
    <rc><c>Al</c><c>   1</c></rc>
    <rc><c>Al</c><c>   1</c></rc>
    <rc><c>Al</c><c>   1</c></rc>
    <rc><c>Al</c><c>   1</c></rc>
   </set>
  </array>
  <array name="atomtypes" >
   <dimension dim="1">type</dimension>
   <field type="int">atomspertype</field>
   <field type="string">element</field>
   <field>mass</field>
   <field>valence</field>
   <field type="string">pseudopotential</field>
   <set>
    <rc><c>  32</c><c>Al</c><c>     26.98100000</c><c>      3.00000000</c><c>  PAW_PBE Al 04Jan2001                  </c></rc>
   </set>
  </array>
 </atominfo>
 <structure name="initialpos" >
  <crystal>
   <varray name="basis" >
    <v>       8.07809510       0.00000000       0.00000000 </v>
    <v>       0.00000000       8.07809510       0.00000000 </v>
    <v>       0.00000000       0.00000000       8.07809510 </v>
   </varray>
   <i name="volume">    527.14110776 </i>
   <varray name="rec_basis" >
    <v>       0.12379156       0.00000000       0.00000000 </v>
    <v>       0.00000000       0.12379156       0.00000000 </v>
    <v>       0.00000000       0.00000000       0.12379156 </v>
   </varray>
  </crystal>
  <varray name="positions" >
   <v>       0.00602384       0.01138551       0.02857095 </v>
   <v>       0.00811293       0.25154080       0.25833665 </v>
   <v>       0.25446158       0.01398775       0.24492704 </v>
   <v>       0.25902468       0.23681481       0.98447433 </v>
   <v>       0.98867693       0.99875610       0.50186948 </v>
   <v>       0.99911610       0.25262983       0.76167862 </v>
   <v>       0.26639548       0.98009624       0.75658226 </v>
   <v>       0.24681212       0.25094805       0.50427106 </v>
   <v>       0.99081808       0.50451664       0.00346157 </v>
   <v>       0.99293211       0.75273159       0.25138103 </v>
   <v>       0.24587872       0.52604599       0.23685692 </v>
   <v>       0.24252397       0.75566192       0.00119213 </v>
   <v>       0.99596075       0.49232695       0.51138585 </v>
   <v>       0.01400325       0.74106546       0.75751790 </v>
   <v>       0.24966454       0.49687662       0.74275771 </v>
   <v>       0.22599274       0.75487209       0.48627293 </v>
   <v>       0.50927527       0.99020841       0.98691969 </v>
   <v>       0.49019751       0.24403379       0.22933056 </v>
   <v>       0.73322373       0.99427384       0.23405628 </v>
   <v>       0.75031087       0.23922334       0.00505722 </v>
   <v>       0.49962383       0.98363670       0.48265384 </v>
   <v>       0.49916773       0.24340373       0.73334908 </v>
   <v>       0.76205151       0.98544386       0.74848028 </v>
   <v>       0.75316810       0.24720924       0.50530909 </v>
   <v>       0.48783405       0.51498518       0.98620004 </v>
   <v>       0.50966059       0.74447679       0.23563417 </v>
   <v>       0.75475176       0.49249493       0.25027102 </v>
   <v>       0.76912896       0.74765911       0.98807177 </v>
   <v>       0.48207405       0.52250828       0.50357572 </v>
   <v>       0.51449264       0.74928615       0.75047791 </v>
   <v>       0.73648549       0.50293520       0.74003734 </v>
   <v>       0.75277216       0.74533720       0.49844152 </v>
  </varray>
 </structure>
 <calculation>
  <scstep>
   <time name="dav">   46.53   46.86</time>
   <time name="total">   46.59   46.92</time>
   <energy>
    <i name="alphaZ">     -6.52466918 </i>
    <i name="ewald">  -2345.75419037 </i>
    <i name="hartreedc">     -6.78005989 </i>
    <i name="XCdc">   -839.45605997 </i>
    <i name="pawpsdc">   2118.40502803 </i>
    <i name="pawaedc">  -1095.85986421 </i>
    <i name="eentropy">     -0.00792826 </i>
    <i name="bandstr">    600.57704647 </i>
    <i name="atom">   1713.23359074 </i>
    <i name="e_fr_energy">    137.83289336 </i>
    <i name="e_wo_entrp">    137.84082162 </i>
    <i name="e_0_energy">    137.83685749 </i>
   </energy>
  </scstep>
  <scstep>
   <time name="dav">   53.16   53.53</time>
   <time name="total">   53.17   53.54</time>
   <energy>
    <i name="e_fr_energy">   -106.48342617 </i>
    <i name="e_wo_entrp">   -106.46900194 </i>
    <i name="e_0_energy">   -106.47621405 </i>
   </energy>
  </scstep>
  <scstep>
   <time name="dav">   56.46   56.86</time>
   <time name="total">   56.47   56.87</time>
   <energy>
    <i name="e_fr_energy">   -119.38427260 </i>
    <i name="e_wo_entrp">   -119.36855266 </i>
    <i name="e_0_energy">   -119.37641263 </i>
   </energy>
  </scstep>
  <scstep>
   <time name="dav">   54.96   55.35</time>
   <time name="total">   54.97   55.36</time>
   <energy>
    <i name="e_fr_energy">   -119.62422373 </i>
    <i name="e_wo_entrp">   -119.60848170 </i>
    <i name="e_0_energy">   -119.61635272 </i>
   </energy>
  </scstep>
  <scstep>
   <time name="dav">   54.67   55.05</time>
   <time name="total">   57.00   57.39</time>
   <energy>
    <i name="e_fr_energy">   -119.62684172 </i>
    <i name="e_wo_entrp">   -119.61110292 </i>
    <i name="e_0_energy">   -119.61897232 </i>
   </energy>
  </scstep>
  <scstep>
   <time name="dav">   58.85   59.22</time>
   <time name="total">   61.93   62.33</time>
   <energy>
    <i name="e_fr_energy">   -118.97564698 </i>
    <i name="e_wo_entrp">   -118.96058049 </i>
    <i name="e_0_energy">   -118.96811374 </i>
   </energy>
  </scstep>
  <scstep>
   <time name="dav">   59.11   59.49</time>
   <time name="total">   62.20   62.60</time>
   <energy>
    <i name="e_fr_energy">   -118.71655504 </i>
    <i name="e_wo_entrp">   -118.70150770 </i>
    <i name="e_0_energy">   -118.70903137 </i>
   </energy>
  </scstep>
  <scstep>
   <time name="dav">   58.53   58.92</time>
   <time name="total">   61.60   62.02</time>
   <energy>
    <i name="e_fr_energy">   -118.66721139 </i>
    <i name="e_wo_entrp">   -118.65215851 </i>
    <i name="e_0_energy">   -118.65968495 </i>
   </energy>
  </scstep>
  <scstep>
   <time name="dav">   58.53   58.92</time>
   <time name="total">   61.61   62.03</time>
   <energy>
    <i name="e_fr_energy">   -118.66549113 </i>
    <i name="e_wo_entrp">   -118.65040388 </i>
    <i name="e_0_energy">   -118.65794751 </i>
   </energy>
  </scstep>
  <scstep>
   <time name="dav">   59.86   60.26</time>
   <time name="total">   62.95   63.38</time>
   <energy>
    <i name="e_fr_energy">   -118.66535958 </i>
    <i name="e_wo_entrp">   -118.65026466 </i>
    <i name="e_0_energy">   -118.65781212 </i>
   </energy>
  </scstep>
  <scstep>
   <time name="dav">   59.83   60.29</time>
   <time name="total">   62.89   63.38</time>
   <energy>
    <i name="e_fr_energy">   -118.66535942 </i>
    <i name="e_wo_entrp">   -118.65026485 </i>
    <i name="e_0_energy">   -118.65781213 </i>
   </energy>
  </scstep>
  <scstep>
   <time name="dav">   41.04   41.31</time>
   <time name="total">   41.12   41.40</time>
   <energy>
    <i name="alphaZ">     -6.52466918 </i>
    <i name="ewald">  -2345.75419037 </i>
    <i name="hartreedc">     -8.17758685 </i>
    <i name="XCdc">   -835.85183763 </i>
    <i name="pawpsdc">   2118.40502803 </i>
    <i name="pawaedc">  -1095.85986421 </i>
    <i name="eentropy">     -0.01509429 </i>
    <i name="bandstr">    341.87926457 </i>
    <i name="atom">   1713.23359074 </i>
    <i name="e_fr_energy">   -118.66535918 </i>
    <i name="e_wo_entrp">   -118.65026490 </i>
    <i name="e_0_energy">   -118.65781204 </i>
   </energy>
  </scstep>
  <structure>
   <crystal>
    <varray name="basis" >
     <v>       8.07809510       0.00000000       0.00000000 </v>
     <v>       0.00000000       8.07809510       0.00000000 </v>
     <v>       0.00000000       0.00000000       8.07809510 </v>
    </varray>
    <i name="volume">    527.14110776 </i>
    <varray name="rec_basis" >
     <v>       0.12379156       0.00000000       0.00000000 </v>
     <v>       0.00000000       0.12379156       0.00000000 </v>
     <v>       0.00000000       0.00000000       0.12379156 </v>
    </varray>
   </crystal>
   <varray name="positions" >
    <v>       0.00602384       0.01138551       0.02857095 </v>
    <v>       0.00811293       0.25154080       0.25833665 </v>
    <v>       0.25446158       0.01398775       0.24492704 </v>
    <v>       0.25902468       0.23681481       0.98447433 </v>
    <v>       0.98867693       0.99875610       0.50186948 </v>
    <v>       0.99911610       0.25262983       0.76167862 </v>
    <v>       0.26639548       0.98009624       0.75658226 </v>
    <v>       0.24681212       0.25094805       0.50427106 </v>
    <v>       0.99081808       0.50451664       0.00346157 </v>
    <v>       0.99293211       0.75273159       0.25138103 </v>
    <v>       0.24587872       0.52604599       0.23685692 </v>
    <v>       0.24252397       0.75566192       0.00119213 </v>
    <v>       0.99596075       0.49232695       0.51138585 </v>
    <v>       0.01400325       0.74106546       0.75751790 </v>
    <v>       0.24966454       0.49687662       0.74275771 </v>
    <v>       0.22599274       0.75487209       0.48627293 </v>
    <v>       0.50927527       0.99020841       0.98691969 </v>
    <v>       0.49019751       0.24403379       0.22933056 </v>
    <v>       0.73322373       0.99427384       0.23405628 </v>
    <v>       0.75031087       0.23922334       0.00505722 </v>
    <v>       0.49962383       0.98363670       0.48265384 </v>
    <v>       0.49916773       0.24340373       0.73334908 </v>
    <v>       0.76205151       0.98544386       0.74848028 </v>
    <v>       0.75316810       0.24720924       0.50530909 </v>
    <v>       0.48783405       0.51498518       0.98620004 </v>
    <v>       0.50966059       0.74447679       0.23563417 </v>
    <v>       0.75475176       0.49249493       0.25027102 </v>
    <v>       0.76912896       0.74765911       0.98807177 </v>
    <v>       0.48207405       0.52250828       0.50357572 </v>
    <v>       0.51449264       0.74928615       0.75047791 </v>
    <v>       0.73648549       0.50293520       0.74003734 </v>
    <v>       0.75277216       0.74533720       0.49844152 </v>
   </varray>
  </structure>
  <varray name="forces" >
   <v>      -0.20687832      -0.29524387      -0.88117160 </v>
   <v>      -0.13672502       0.30978448      -0.02194568 </v>
   <v>      -0.00044916      -0.54631608       0.30670262 </v>
   <v>      -0.13193365       0.56174161       0.07540556 </v>
   <v>       0.32799167       0.11845820      -0.04036907 </v>
   <v>      -0.03661835      -0.27716428      -0.07458930 </v>
   <v>      -0.52812714       0.44857589      -0.61089592 </v>
   <v>       0.12357220      -0.16186341      -0.19009046 </v>
   <v>       0.32222066      -0.51532828      -0.09691058 </v>
   <v>      -0.15580121       0.04951724      -0.00166922 </v>
   <v>       0.03895464      -0.95657957       0.33270127 </v>
   <v>       0.20002072       0.05575383      -0.00217793 </v>
   <v>       0.00908300       0.15779256      -0.30669699 </v>
   <v>      -0.27516428       0.29233996      -0.32316696 </v>
   <v>      -0.04438094       0.07460471       0.31775007 </v>
   <v>       0.58584546       0.10783160       0.31337978 </v>
   <v>      -0.13431940       0.13276339       0.06558908 </v>
   <v>       0.29819045       0.66268869       0.55144526 </v>
   <v>       0.51355390       0.10651755       0.60076408 </v>
   <v>      -0.06016480       0.49524552      -0.37899816 </v>
   <v>      -0.07154880       0.34112117       0.39705453 </v>
   <v>       0.24152733      -0.00907421       0.19817206 </v>
   <v>      -0.04610331       0.45219437       0.03974275 </v>
   <v>      -0.33547678      -0.08478082      -0.32962261 </v>
   <v>       0.38274156      -0.68671728       0.27435460 </v>
   <v>      -0.14959159      -0.01180389       0.12434448 </v>
   <v>      -0.39786378      -0.01431344       0.04358466 </v>
   <v>      -0.47861035       0.02257735       0.31542062 </v>
   <v>       0.25452079      -0.57811497      -0.61858078 </v>
   <v>      -0.44576072       0.18696058      -0.23576432 </v>
   <v>       0.35299196      -0.46031701       0.30915317 </v>
   <v>      -0.01569677       0.02114838      -0.15291501 </v>
  </varray>
  <varray name="stress" >
   <v>      14.73623657      -1.72715030       1.52887093 </v>
   <v>      -1.72715029      10.74979594      -0.03854265 </v>
   <v>       1.52887093      -0.03854268      14.57403915 </v>
  </varray>
  <energy>
   <i name="e_fr_energy">   -118.66535918 </i>
   <i name="e_wo_entrp">   -118.65026490 </i>
   <i name="e_0_energy">   -118.65781204 </i>
  </energy>
  <time name="totalsc">  753.69  758.88</time>
  <eigenvalues>
   <array>
    <dimension dim="1">band</dimension>
    <dimension dim="2">kpoint</dimension>
    <dimension dim="3">spin</dimension>
    <field>eigene</field>
    <field>occ</field>
    <set>
     <set comment="spin 1">
      <set comment="kpoint 1">
       <r>   -3.1716    1.0000 </r>
       <r>   -1.1052    1.0000 </r>
       <r>   -1.0108    1.0000 </r>
       <r>   -0.9454    1.0000 </r>
       <r>   -0.9180    1.0000 </r>
       <r>   -0.8244    1.0000 </r>
       <r>   -0.7070    1.0000 </r>
       <r>    1.0055    1.0000 </r>
       <r>    1.1085    1.0000 </r>
       <r>    1.1546    1.0000 </r>
       <r>    1.2149    1.0000 </r>
       <r>    1.2373    1.0000 </r>
       <r>    1.2782    1.0000 </r>
       <r>    1.3078    1.0000 </r>
       <r>    1.3526    1.0000 </r>
       <r>    1.3966    1.0000 </r>
       <r>    1.4037    1.0000 </r>
       <r>    1.5753    1.0000 </r>
       <r>    1.6713    1.0000 </r>
       <r>    3.3124    1.0000 </r>
       <r>    3.3519    1.0000 </r>
       <r>    3.4038    1.0000 </r>
       <r>    3.4180    1.0000 </r>
       <r>    3.6099    1.0000 </r>
       <r>    3.6218    1.0000 </r>
       <r>    3.6635    1.0000 </r>
       <r>    3.7300    1.0000 </r>
       <r>    5.0465    1.0000 </r>
       <r>    5.0545    1.0000 </r>
       <r>    5.0937    1.0000 </r>
       <r>    6.3057    1.0000 </r>
       <r>    6.3257    1.0000 </r>
       <r>    6.3463    1.0000 </r>
       <r>    6.8153    1.0000 </r>
       <r>    6.9715    1.0000 </r>
       <r>    6.9984    1.0000 </r>
       <r>    7.0173    1.0000 </r>
       <r>    7.0474    1.0000 </r>
       <r>    7.1686    1.0000 </r>
       <r>    7.2067    1.0000 </r>
       <r>    7.2267    1.0000 </r>
       <r>    7.3048    1.0000 </r>
       <r>    7.3230    1.0000 </r>
       <r>    7.3469    1.0000 </r>
       <r>    7.4148    1.0000 </r>
       <r>    7.9498    0.9533 </r>
       <r>    8.0518    0.1134 </r>
       <r>    8.0907    0.0105 </r>
       <r>    8.1494    0.0000 </r>
       <r>    8.2481    0.0000 </r>
       <r>    8.4170    0.0000 </r>
       <r>    8.9171    0.0000 </r>
       <r>    8.9553    0.0000 </r>
       <r>    9.0115    0.0000 </r>
       <r>    9.0324    0.0000 </r>
       <r>    9.0536    0.0000 </r>
       <r>    9.0604    0.0000 </r>
       <r>    9.1187    0.0000 </r>
       <r>    9.1288    0.0000 </r>
       <r>    9.1555    0.0000 </r>
       <r>    9.2010    0.0000 </r>
       <r>    9.2300    0.0000 </r>
       <r>    9.2798    0.0000 </r>
       <r>    9.2969    0.0000 </r>
       <r>    9.3466    0.0000 </r>
       <r>    9.3911    0.0000 </r>
       <r>    9.4354    0.0000 </r>
       <r>    9.4984    0.0000 </r>
       <r>    9.5402    0.0000 </r>
       <r>   10.5299    0.0000 </r>
       <r>   10.5802    0.0000 </r>
       <r>   10.6485    0.0000 </r>
      </set>
      <set comment="kpoint 2">
       <r>   -3.1437    1.0000 </r>
       <r>   -1.4069    1.0000 </r>
       <r>   -1.0739    1.0000 </r>
       <r>   -0.9095    1.0000 </r>
       <r>   -0.8397    1.0000 </r>
       <r>   -0.7361    1.0000 </r>
       <r>   -0.3844    1.0000 </r>
       <r>    0.6370    1.0000 </r>
       <r>    0.8013    1.0000 </r>
       <r>    0.8708    1.0000 </r>
       <r>    0.9700    1.0000 </r>
       <r>    1.2132    1.0000 </r>
       <r>    1.3198    1.0000 </r>
       <r>    1.3525    1.0000 </r>
       <r>    1.4610    1.0000 </r>
       <r>    1.6506    1.0000 </r>
       <r>    1.8257    1.0000 </r>
       <r>    1.9023    1.0000 </r>
       <r>    2.0141    1.0000 </r>
       <r>    2.9116    1.0000 </r>
       <r>    3.0402    1.0000 </r>
       <r>    3.0614    1.0000 </r>
       <r>    3.1821    1.0000 </r>
       <r>    3.8936    1.0000 </r>
       <r>    4.0196    1.0000 </r>
       <r>    4.0449    1.0000 </r>
       <r>    4.1681    1.0000 </r>
       <r>    4.5714    1.0000 </r>
       <r>    5.0751    1.0000 </r>
       <r>    5.1183    1.0000 </r>
       <r>    6.3091    1.0000 </r>
       <r>    6.3415    1.0000 </r>
       <r>    6.4480    1.0000 </r>
       <r>    6.5776    1.0000 </r>
       <r>    6.6628    1.0000 </r>
       <r>    6.7336    1.0000 </r>
       <r>    6.7780    1.0000 </r>
       <r>    6.8257    1.0000 </r>
       <r>    6.9502    1.0000 </r>
       <r>    7.0361    1.0000 </r>
       <r>    7.1811    1.0000 </r>
       <r>    7.2737    1.0000 </r>
       <r>    7.3166    1.0000 </r>
       <r>    7.6492    1.0000 </r>
       <r>    7.6692    1.0000 </r>
       <r>    7.9497    0.9535 </r>
       <r>    7.9661    0.8883 </r>
       <r>    8.2370    0.0000 </r>
       <r>    8.3654    0.0000 </r>
       <r>    8.4060    0.0000 </r>
       <r>    8.5773    0.0000 </r>
       <r>    8.6371    0.0000 </r>
       <r>    8.6770    0.0000 </r>
       <r>    8.7659    0.0000 </r>
       <r>    8.8112    0.0000 </r>
       <r>    8.8485    0.0000 </r>
       <r>    8.8815    0.0000 </r>
       <r>    8.9460    0.0000 </r>
       <r>    9.0673    0.0000 </r>
       <r>    9.2427    0.0000 </r>
       <r>    9.2997    0.0000 </r>
       <r>    9.3089    0.0000 </r>
       <r>    9.3616    0.0000 </r>
       <r>    9.3889    0.0000 </r>
       <r>    9.4562    0.0000 </r>
       <r>    9.5948    0.0000 </r>
       <r>    9.7458    0.0000 </r>
       <r>    9.8232    0.0000 </r>
       <r>    9.9011    0.0000 </r>
       <r>   10.2066    0.0000 </r>
       <r>   10.2672    0.0000 </r>
       <r>   10.3176    0.0000 </r>
      </set>
      <set comment="kpoint 3">
       <r>   -3.1443    1.0000 </r>
       <r>   -1.4126    1.0000 </r>
       <r>   -0.9773    1.0000 </r>
       <r>   -0.9430    1.0000 </r>
       <r>   -0.8774    1.0000 </r>
       <r>   -0.7845    1.0000 </r>
       <r>   -0.3600    1.0000 </r>
       <r>    0.7436    1.0000 </r>
       <r>    0.7827    1.0000 </r>
       <r>    0.8129    1.0000 </r>
       <r>    0.9210    1.0000 </r>
       <r>    1.2627    1.0000 </r>
       <r>    1.2967    1.0000 </r>
       <r>    1.3597    1.0000 </r>
       <r>    1.4004    1.0000 </r>
       <r>    1.7635    1.0000 </r>
       <r>    1.7774    1.0000 </r>
       <r>    1.8916    1.0000 </r>
       <r>    2.0011    1.0000 </r>
       <r>    2.9618    1.0000 </r>
       <r>    3.0017    1.0000 </r>
       <r>    3.0880    1.0000 </r>
       <r>    3.1424    1.0000 </r>
       <r>    3.9556    1.0000 </r>
       <r>    3.9790    1.0000 </r>
       <r>    4.0715    1.0000 </r>
       <r>    4.1298    1.0000 </r>
       <r>    4.5955    1.0000 </r>
       <r>    5.0788    1.0000 </r>
       <r>    5.0854    1.0000 </r>
       <r>    6.3220    1.0000 </r>
       <r>    6.3446    1.0000 </r>
       <r>    6.4988    1.0000 </r>
       <r>    6.5953    1.0000 </r>
       <r>    6.6339    1.0000 </r>
       <r>    6.7065    1.0000 </r>
       <r>    6.7831    1.0000 </r>
       <r>    6.8431    1.0000 </r>
       <r>    6.8957    1.0000 </r>
       <r>    7.1290    1.0000 </r>
       <r>    7.1710    1.0000 </r>
       <r>    7.2222    1.0000 </r>
       <r>    7.2657    1.0000 </r>
       <r>    7.6404    1.0000 </r>
       <r>    7.6709    1.0000 </r>
       <r>    7.9228    0.9927 </r>
       <r>    7.9644    0.8969 </r>
       <r>    8.2977    0.0000 </r>
       <r>    8.3642    0.0000 </r>
       <r>    8.4574    0.0000 </r>
       <r>    8.5067    0.0000 </r>
       <r>    8.6455    0.0000 </r>
       <r>    8.6951    0.0000 </r>
       <r>    8.7487    0.0000 </r>
       <r>    8.7940    0.0000 </r>
       <r>    8.8586    0.0000 </r>
       <r>    8.9005    0.0000 </r>
       <r>    8.9572    0.0000 </r>
       <r>    9.0520    0.0000 </r>
       <r>    9.2436    0.0000 </r>
       <r>    9.2972    0.0000 </r>
       <r>    9.3261    0.0000 </r>
       <r>    9.3497    0.0000 </r>
       <r>    9.3757    0.0000 </r>
       <r>    9.4481    0.0000 </r>
       <r>    9.6827    0.0000 </r>
       <r>    9.7121    0.0000 </r>
       <r>    9.8258    0.0000 </r>
       <r>    9.8751    0.0000 </r>
       <r>   10.2000    0.0000 </r>
       <r>   10.3104    0.0000 </r>
       <r>   10.3496    0.0000 </r>
      </set>
      <set comment="kpoint 4">
       <r>   -3.1438    1.0000 </r>
       <r>   -1.4187    1.0000 </r>
       <r>   -0.9744    1.0000 </r>
       <r>   -0.9434    1.0000 </r>
       <r>   -0.8943    1.0000 </r>
       <r>   -0.7548    1.0000 </r>
       <r>   -0.3657    1.0000 </r>
       <r>    0.7323    1.0000 </r>
       <r>    0.7638    1.0000 </r>
       <r>    0.8199    1.0000 </r>
       <r>    0.9279    1.0000 </r>
       <r>    1.2314    1.0000 </r>
       <r>    1.2988    1.0000 </r>
       <r>    1.3943    1.0000 </r>
       <r>    1.4263    1.0000 </r>
       <r>    1.7480    1.0000 </r>
       <r>    1.8021    1.0000 </r>
       <r>    1.8618    1.0000 </r>
       <r>    2.0097    1.0000 </r>
       <r>    2.9516    1.0000 </r>
       <r>    2.9944    1.0000 </r>
       <r>    3.0981    1.0000 </r>
       <r>    3.1433    1.0000 </r>
       <r>    3.9401    1.0000 </r>
       <r>    3.9774    1.0000 </r>
       <r>    4.0823    1.0000 </r>
       <r>    4.1369    1.0000 </r>
       <r>    4.5760    1.0000 </r>
       <r>    5.0777    1.0000 </r>
       <r>    5.1112    1.0000 </r>
       <r>    6.3251    1.0000 </r>
       <r>    6.3442    1.0000 </r>
       <r>    6.4854    1.0000 </r>
       <r>    6.5670    1.0000 </r>
       <r>    6.6164    1.0000 </r>
       <r>    6.7051    1.0000 </r>
       <r>    6.7856    1.0000 </r>
       <r>    6.8397    1.0000 </r>
       <r>    6.9604    1.0000 </r>
       <r>    7.0960    1.0000 </r>
       <r>    7.1691    1.0000 </r>
       <r>    7.2192    1.0000 </r>
       <r>    7.2926    1.0000 </r>
       <r>    7.6343    1.0000 </r>
       <r>    7.6888    1.0000 </r>
       <r>    7.9246    0.9916 </r>
       <r>    7.9789    0.8033 </r>
       <r>    8.2905    0.0000 </r>
       <r>    8.3745    0.0000 </r>
       <r>    8.4477    0.0000 </r>
       <r>    8.5151    0.0000 </r>
       <r>    8.6235    0.0000 </r>
       <r>    8.6985    0.0000 </r>
       <r>    8.7483    0.0000 </r>
       <r>    8.7788    0.0000 </r>
       <r>    8.8559    0.0000 </r>
       <r>    8.9163    0.0000 </r>
       <r>    8.9683    0.0000 </r>
       <r>    9.0032    0.0000 </r>
       <r>    9.2603    0.0000 </r>
       <r>    9.2824    0.0000 </r>
       <r>    9.3433    0.0000 </r>
       <r>    9.3507    0.0000 </r>
       <r>    9.3938    0.0000 </r>
       <r>    9.4643    0.0000 </r>
       <r>    9.6669    0.0000 </r>
       <r>    9.7420    0.0000 </r>
       <r>    9.7626    0.0000 </r>
       <r>    9.8952    0.0000 </r>
       <r>   10.1876    0.0000 </r>
       <r>   10.3222    0.0000 </r>
       <r>   10.3402    0.0000 </r>
      </set>
      <set comment="kpoint 5">
       <r>   -3.0600    1.0000 </r>
       <r>   -1.8141    1.0000 </r>
       <r>   -0.9920    1.0000 </r>
       <r>   -0.8285    1.0000 </r>
       <r>   -0.7563    1.0000 </r>
       <r>   -0.6505    1.0000 </r>
       <r>    0.1604    1.0000 </r>
       <r>    0.2375    1.0000 </r>
       <r>    0.4163    1.0000 </r>
       <r>    0.4763    1.0000 </r>
       <r>    0.5843    1.0000 </r>
       <r>    1.2915    1.0000 </r>
       <r>    1.4028    1.0000 </r>
       <r>    1.4361    1.0000 </r>
       <r>    1.5505    1.0000 </r>
       <r>    2.1899    1.0000 </r>
       <r>    2.3744    1.0000 </r>
       <r>    2.4188    1.0000 </r>
       <r>    2.4961    1.0000 </r>
       <r>    2.5696    1.0000 </r>
       <r>    2.6623    1.0000 </r>
       <r>    2.6871    1.0000 </r>
       <r>    2.8050    1.0000 </r>
       <r>    3.7835    1.0000 </r>
       <r>    4.4367    1.0000 </r>
       <r>    4.5679    1.0000 </r>
       <r>    4.5929    1.0000 </r>
       <r>    4.7174    1.0000 </r>
       <r>    5.1508    1.0000 </r>
       <r>    5.1928    1.0000 </r>
       <r>    5.6923    1.0000 </r>
       <r>    5.8698    1.0000 </r>
       <r>    5.9519    1.0000 </r>
       <r>    6.0462    1.0000 </r>
       <r>    6.2684    1.0000 </r>
       <r>    6.3481    1.0000 </r>
       <r>    6.4835    1.0000 </r>
       <r>    6.5352    1.0000 </r>
       <r>    7.0818    1.0000 </r>
       <r>    7.2395    1.0000 </r>
       <r>    7.3207    1.0000 </r>
       <r>    7.3784    1.0000 </r>
       <r>    7.6204    1.0000 </r>
       <r>    7.6531    1.0000 </r>
       <r>    7.8169    1.0000 </r>
       <r>    7.9226    0.9928 </r>
       <r>    8.0348    0.2340 </r>
       <r>    8.0818    0.0199 </r>
       <r>    8.1216    0.0007 </r>
       <r>    8.1564    0.0000 </r>
       <r>    8.2397    0.0000 </r>
       <r>    8.2966    0.0000 </r>
       <r>    8.4117    0.0000 </r>
       <r>    8.5119    0.0000 </r>
       <r>    8.5524    0.0000 </r>
       <r>    8.5912    0.0000 </r>
       <r>    8.6410    0.0000 </r>
       <r>    8.6815    0.0000 </r>
       <r>    8.8361    0.0000 </r>
       <r>    9.7016    0.0000 </r>
       <r>    9.7371    0.0000 </r>
       <r>    9.7709    0.0000 </r>
       <r>    9.7995    0.0000 </r>
       <r>    9.9159    0.0000 </r>
       <r>    9.9890    0.0000 </r>
       <r>   10.0499    0.0000 </r>
       <r>   10.1104    0.0000 </r>
       <r>   10.1530    0.0000 </r>
       <r>   10.1787    0.0000 </r>
       <r>   10.2384    0.0000 </r>
       <r>   10.3232    0.0000 </r>
       <r>   10.4081    0.0000 </r>
      </set>
      <set comment="kpoint 6">
       <r>   -3.0628    1.0000 </r>
       <r>   -1.8057    1.0000 </r>
       <r>   -0.8978    1.0000 </r>
       <r>   -0.8639    1.0000 </r>
[...]
       <r>    2.6923    1.0000 </r>
       <r>    2.8486    1.0000 </r>
       <r>    2.8656    1.0000 </r>
       <r>    2.8968    1.0000 </r>
       <r>    3.0052    1.0000 </r>
       <r>    3.0567    1.0000 </r>
       <r>    3.1305    1.0000 </r>
       <r>    3.2253    1.0000 </r>
       <r>    3.2748    1.0000 </r>
       <r>    3.3159    1.0000 </r>
       <r>    3.3696    1.0000 </r>
       <r>    3.4384    1.0000 </r>
       <r>    3.4923    1.0000 </r>
       <r>    3.5501    1.0000 </r>
       <r>    3.6397    1.0000 </r>
       <r>    3.8239    1.0000 </r>
       <r>    6.3168    1.0000 </r>
       <r>    6.3890    1.0000 </r>
       <r>    6.4368    1.0000 </r>
       <r>    6.6356    1.0000 </r>
       <r>    6.6826    1.0000 </r>
       <r>    6.7130    1.0000 </r>
       <r>    6.9935    1.0000 </r>
       <r>    7.0241    1.0000 </r>
       <r>    7.0801    1.0000 </r>
       <r>    7.1326    1.0000 </r>
       <r>    7.1862    1.0000 </r>
       <r>    7.2106    1.0000 </r>
       <r>    7.2943    1.0000 </r>
       <r>    7.3490    1.0000 </r>
       <r>    7.3849    1.0000 </r>
       <r>    7.4222    1.0000 </r>
       <r>    7.4915    1.0000 </r>
       <r>    7.5594    1.0000 </r>
       <r>    7.7628    1.0000 </r>
       <r>    7.8483    1.0000 </r>
       <r>    7.9218    0.9932 </r>
       <r>    8.0033    0.5655 </r>
       <r>    8.1031    0.0039 </r>
       <r>    8.2802    0.0000 </r>
       <r>   10.3693    0.0000 </r>
       <r>   10.7139    0.0000 </r>
       <r>   10.7294    0.0000 </r>
       <r>   10.8380    0.0000 </r>
       <r>   10.9498    0.0000 </r>
       <r>   10.9812    0.0000 </r>
       <r>   11.0154    0.0000 </r>
       <r>   11.0340    0.0000 </r>
       <r>   11.0904    0.0000 </r>
       <r>   11.1225    0.0000 </r>
       <r>   11.1500    0.0000 </r>
       <r>   11.1948    0.0000 </r>
       <r>   11.2701    0.0000 </r>
       <r>   11.3211    0.0000 </r>
       <r>   11.3809    0.0000 </r>
       <r>   11.4293    0.0000 </r>
      </set>
     </set>
    </set>
   </array>
  </eigenvalues>
  <separator name="orbital magnetization" >
   <v name="MAGDIPOLOUT">      0.00000000      0.00000000      0.00000000</v>
  </separator>
  <dos>
   <i name="efermi">      8.00910393 </i>
   <total>
    <array>
     <dimension dim="1">gridpoints</dimension>
     <dimension dim="2">spin</dimension>
     <field>energy</field>
     <field>total</field>
     <field>integrated</field>
     <set>
      <set comment="spin 1">
       <r>    -3.9190     0.0000     0.0000 </r>
       <r>    -3.8642     0.0000     0.0000 </r>
       <r>    -3.8094     0.0000     0.0000 </r>
       <r>    -3.7546     0.0000     0.0000 </r>
       <r>    -3.6997     0.0000     0.0000 </r>
       <r>    -3.6449     0.0000     0.0000 </r>
       <r>    -3.5901     0.0000     0.0000 </r>
       <r>    -3.5353     0.0000     0.0000 </r>
       <r>    -3.4805     0.0000     0.0000 </r>
       <r>    -3.4257     0.0000     0.0000 </r>
       <r>    -3.3709     0.0000     0.0000 </r>
       <r>    -3.3161     0.0000     0.0000 </r>
       <r>    -3.2613     0.0004     0.0000 </r>
       <r>    -3.2064     0.0227     0.0013 </r>
       <r>    -3.1516     0.2494     0.0149 </r>
       <r>    -3.0968     0.7371     0.0553 </r>
       <r>    -3.0420     1.1828     0.1202 </r>
       <r>    -2.9872     1.5390     0.2045 </r>
       <r>    -2.9324     1.5641     0.2903 </r>
       <r>    -2.8776     2.1654     0.4089 </r>
       <r>    -2.8228     2.1151     0.5249 </r>
       <r>    -2.7679     2.3864     0.6557 </r>
       <r>    -2.7131     2.3356     0.7837 </r>
       <r>    -2.6583     3.0953     0.9533 </r>
       <r>    -2.6035     3.0928     1.1229 </r>
       <r>    -2.5487     2.4883     1.2593 </r>
       <r>    -2.4939     2.3847     1.3900 </r>
       <r>    -2.4391     3.2029     1.5655 </r>
       <r>    -2.3843     3.4474     1.7545 </r>
       <r>    -2.3295     3.4312     1.9425 </r>
       <r>    -2.2746     3.1964     2.1177 </r>
       <r>    -2.2198     3.4433     2.3065 </r>
       <r>    -2.1650     3.5778     2.5026 </r>
       <r>    -2.1102     3.7661     2.7090 </r>
       <r>    -2.0554     4.5590     2.9589 </r>
       <r>    -2.0006     4.2337     3.1910 </r>
       <r>    -1.9458     4.0939     3.4153 </r>
       <r>    -1.8910     3.4164     3.6026 </r>
       <r>    -1.8362     3.3102     3.7840 </r>
       <r>    -1.7813     3.8369     3.9943 </r>
       <r>    -1.7265     5.3909     4.2898 </r>
       <r>    -1.6717     5.5410     4.5935 </r>
       <r>    -1.6169     4.4219     4.8359 </r>
       <r>    -1.5621     3.9399     5.0519 </r>
       <r>    -1.5073     4.3472     5.2901 </r>
       <r>    -1.4525     4.1534     5.5178 </r>
       <r>    -1.3977     5.0153     5.7927 </r>
       <r>    -1.3429     6.1927     6.1321 </r>
       <r>    -1.2880     6.0802     6.4654 </r>
       <r>    -1.2332     4.0076     6.6850 </r>
       <r>    -1.1784     3.9717     6.9027 </r>
       <r>    -1.1236     5.9452     7.2286 </r>
       <r>    -1.0688     6.2266     7.5699 </r>
       <r>    -1.0140     5.9981     7.8987 </r>
       <r>    -0.9592     4.8105     8.1623 </r>
       <r>    -0.9044     4.5581     8.4122 </r>
       <r>    -0.8495     5.4601     8.7114 </r>
       <r>    -0.7947     6.1900     9.0507 </r>
       <r>    -0.7399     6.6649     9.4160 </r>
       <r>    -0.6851     7.2521     9.8135 </r>
       <r>    -0.6303     5.4082    10.1100 </r>
       <r>    -0.5755     5.4973    10.4113 </r>
       <r>    -0.5207     4.8885    10.6792 </r>
       <r>    -0.4659     5.3460    10.9722 </r>
       <r>    -0.4111     7.5915    11.3883 </r>
       <r>    -0.3562     7.0828    11.7766 </r>
       <r>    -0.3014     6.8485    12.1519 </r>
       <r>    -0.2466     6.1001    12.4863 </r>
       <r>    -0.1918     6.0286    12.8167 </r>
       <r>    -0.1370     6.0007    13.1456 </r>
       <r>    -0.0822     6.1409    13.4822 </r>
       <r>    -0.0274     7.3457    13.8849 </r>
       <r>     0.0274     7.4868    14.2952 </r>
       <r>     0.0822     6.6782    14.6613 </r>
       <r>     0.1371     6.1925    15.0007 </r>
       <r>     0.1919     6.3619    15.3494 </r>
       <r>     0.2467     7.2893    15.7489 </r>
       <r>     0.3015     6.7067    16.1165 </r>
       <r>     0.3563     6.7128    16.4845 </r>
       <r>     0.4111     7.3767    16.8888 </r>
       <r>     0.4659     8.2351    17.3402 </r>
       <r>     0.5207     7.2194    17.7359 </r>
       <r>     0.5755     6.9555    18.1171 </r>
       <r>     0.6304     7.5360    18.5302 </r>
       <r>     0.6852     7.1327    18.9211 </r>
       <r>     0.7400     6.8842    19.2985 </r>
       <r>     0.7948     5.8656    19.6200 </r>
       <r>     0.8496     7.0064    20.0040 </r>
       <r>     0.9044     8.4214    20.4656 </r>
       <r>     0.9592     8.5045    20.9317 </r>
       <r>     1.0140     8.5477    21.4002 </r>
       <r>     1.0689     9.4538    21.9184 </r>
       <r>     1.1237     7.4763    22.3282 </r>
       <r>     1.1785     6.6337    22.6918 </r>
       <r>     1.2333     7.6765    23.1126 </r>
       <r>     1.2881     7.5424    23.5260 </r>
       <r>     1.3429     8.5969    23.9972 </r>
       <r>     1.3977     8.6344    24.4705 </r>
       <r>     1.4525     6.5877    24.8315 </r>
       <r>     1.5073     7.3291    25.2333 </r>
       <r>     1.5622     9.8292    25.7720 </r>
       <r>     1.6170     9.6521    26.3010 </r>
       <r>     1.6718     7.5869    26.7169 </r>
       <r>     1.7266     6.9736    27.0991 </r>
       <r>     1.7814     9.2780    27.6077 </r>
       <r>     1.8362     9.9285    28.1519 </r>
       <r>     1.8910     9.3220    28.6628 </r>
       <r>     1.9458    10.0398    29.2131 </r>
       <r>     2.0006     8.6990    29.6899 </r>
       <r>     2.0555     6.3694    30.0390 </r>
       <r>     2.1103     6.4168    30.3907 </r>
       <r>     2.1651     8.0897    30.8342 </r>
       <r>     2.2199     9.8984    31.3767 </r>
       <r>     2.2747    10.0802    31.9292 </r>
       <r>     2.3295     9.6217    32.4566 </r>
       <r>     2.3843     7.8093    32.8846 </r>
       <r>     2.4391     8.6097    33.3565 </r>
       <r>     2.4940    11.9578    34.0120 </r>
       <r>     2.5488    10.4081    34.5825 </r>
       <r>     2.6036     8.5627    35.0518 </r>
       <r>     2.6584     9.4689    35.5708 </r>
       <r>     2.7132     9.4486    36.0887 </r>
       <r>     2.7680     7.8025    36.5163 </r>
       <r>     2.8228     8.2154    36.9666 </r>
       <r>     2.8776     9.9668    37.5129 </r>
       <r>     2.9324     9.0993    38.0117 </r>
       <r>     2.9873     8.0550    38.4532 </r>
       <r>     3.0421     9.4524    38.9713 </r>
       <r>     3.0969    11.2087    39.5857 </r>
       <r>     3.1517    11.2747    40.2036 </r>
       <r>     3.2065    11.4415    40.8308 </r>
       <r>     3.2613    11.0266    41.4351 </r>
       <r>     3.3161    10.6541    42.0191 </r>
       <r>     3.3709     8.5408    42.4872 </r>
       <r>     3.4257     7.9558    42.9233 </r>
       <r>     3.4806     9.2907    43.4326 </r>
       <r>     3.5354    11.1494    44.0437 </r>
       <r>     3.5902    10.7155    44.6310 </r>
       <r>     3.6450    10.5648    45.2101 </r>
       <r>     3.6998    10.4573    45.7832 </r>
       <r>     3.7546     9.0807    46.2810 </r>
       <r>     3.8094     8.8398    46.7655 </r>
       <r>     3.8642     9.8244    47.3040 </r>
       <r>     3.9190    11.6326    47.9416 </r>
       <r>     3.9739    11.2607    48.5588 </r>
       <r>     4.0287    11.1581    49.1704 </r>
       <r>     4.0835    11.6297    49.8078 </r>
       <r>     4.1383    10.1339    50.3633 </r>
       <r>     4.1931    10.6885    50.9491 </r>
       <r>     4.2479    10.7136    51.5364 </r>
       <r>     4.3027    12.5572    52.2246 </r>
       <r>     4.3575    12.3469    52.9014 </r>
       <r>     4.4124     8.9272    53.3907 </r>
       <r>     4.4672     9.1179    53.8905 </r>
       <r>     4.5220     9.1784    54.3936 </r>
       <r>     4.5768    10.0604    54.9450 </r>
       <r>     4.6316    11.6617    55.5842 </r>
       <r>     4.6864    11.6672    56.2237 </r>
       <r>     4.7412    12.7315    56.9215 </r>
       <r>     4.7960    13.5238    57.6628 </r>
       <r>     4.8508    11.8882    58.3144 </r>
       <r>     4.9057    12.8586    59.0192 </r>
       <r>     4.9605    12.3257    59.6947 </r>
       <r>     5.0153    10.7343    60.2831 </r>
       <r>     5.0701    10.4012    60.8532 </r>
       <r>     5.1249    12.0251    61.5123 </r>
       <r>     5.1797    12.2249    62.1824 </r>
       <r>     5.2345    12.3986    62.8620 </r>
       <r>     5.2893    11.8269    63.5102 </r>
       <r>     5.3441    11.8960    64.1623 </r>
       <r>     5.3990    12.8022    64.8640 </r>
       <r>     5.4538    11.3052    65.4836 </r>
       <r>     5.5086    11.2810    66.1020 </r>
       <r>     5.5634    13.2099    66.8260 </r>
       <r>     5.6182    12.9796    67.5374 </r>
       <r>     5.6730    11.5525    68.1706 </r>
       <r>     5.7278    11.4997    68.8010 </r>
       <r>     5.7826    11.2712    69.4187 </r>
       <r>     5.8374    10.4194    69.9898 </r>
       <r>     5.8923    11.7960    70.6364 </r>
       <r>     5.9471    11.6956    71.2775 </r>
       <r>     6.0019     9.8448    71.8171 </r>
       <r>     6.0567    10.7245    72.4049 </r>
       <r>     6.1115    11.6210    73.0419 </r>
       <r>     6.1663    12.5034    73.7272 </r>
       <r>     6.2211    10.8537    74.3221 </r>
       <r>     6.2759    11.1956    74.9357 </r>
       <r>     6.3308    12.3350    75.6118 </r>
       <r>     6.3856    12.3450    76.2885 </r>
       <r>     6.4404    13.1277    77.0080 </r>
       <r>     6.4952    11.2718    77.6259 </r>
       <r>     6.5500     9.4209    78.1422 </r>
       <r>     6.6048    10.3376    78.7088 </r>
       <r>     6.6596    10.6841    79.2945 </r>
       <r>     6.7144    11.7546    79.9387 </r>
       <r>     6.7692    11.9273    80.5925 </r>
       <r>     6.8241    11.9647    81.2483 </r>
       <r>     6.8789    12.9454    81.9579 </r>
       <r>     6.9337    13.0867    82.6752 </r>
       <r>     6.9885    14.0914    83.4475 </r>
       <r>     7.0433    13.9795    84.2138 </r>
       <r>     7.0981    12.0751    84.8756 </r>
       <r>     7.1529    11.7946    85.5221 </r>
       <r>     7.2077    12.2942    86.1960 </r>
       <r>     7.2625    11.1033    86.8045 </r>
       <r>     7.3174    12.1986    87.4732 </r>
       <r>     7.3722    14.2755    88.2556 </r>
       <r>     7.4270    11.5100    88.8865 </r>
       <r>     7.4818    10.1381    89.4422 </r>
       <r>     7.5366    12.9560    90.1523 </r>
       <r>     7.5914    12.5260    90.8389 </r>
       <r>     7.6462    12.5883    91.5289 </r>
       <r>     7.7010    13.3442    92.2603 </r>
       <r>     7.7558    11.7924    92.9067 </r>
       <r>     7.8107     9.8782    93.4481 </r>
       <r>     7.8655    11.3964    94.0728 </r>
       <r>     7.9203    13.3214    94.8029 </r>
       <r>     7.9751    13.9628    95.5682 </r>
       <r>     8.0299    12.4146    96.2487 </r>
       <r>     8.0847    13.2257    96.9736 </r>
       <r>     8.1395    15.4458    97.8202 </r>
       <r>     8.1943    13.5746    98.5643 </r>
       <r>     8.2492    13.5514    99.3070 </r>
       <r>     8.3040    14.3943   100.0960 </r>
       <r>     8.3588    14.4449   100.8878 </r>
       <r>     8.4136    14.4378   101.6791 </r>
       <r>     8.4684    12.9877   102.3910 </r>
       <r>     8.5232    13.0347   103.1054 </r>
       <r>     8.5780    12.2213   103.7753 </r>
       <r>     8.6328    10.8610   104.3706 </r>
       <r>     8.6876    12.3897   105.0497 </r>
       <r>     8.7425    12.7072   105.7462 </r>
       <r>     8.7973    12.0789   106.4083 </r>
       <r>     8.8521    11.9123   107.0612 </r>
       <r>     8.9069    12.5879   107.7512 </r>
       <r>     8.9617    14.6921   108.5565 </r>
       <r>     9.0165    17.0034   109.4884 </r>
       <r>     9.0713    15.4525   110.3354 </r>
       <r>     9.1261    15.3849   111.1787 </r>
       <r>     9.1809    15.5030   112.0284 </r>
       <r>     9.2358    14.5790   112.8275 </r>
       <r>     9.2906    13.2170   113.5520 </r>
       <r>     9.3454    12.8443   114.2560 </r>
       <r>     9.4002    11.8473   114.9054 </r>
       <r>     9.4550    11.9753   115.5617 </r>
       <r>     9.5098    11.8177   116.2095 </r>
       <r>     9.5646    12.3725   116.8876 </r>
       <r>     9.6194    13.1371   117.6077 </r>
       <r>     9.6742    13.2875   118.3360 </r>
       <r>     9.7291    14.9545   119.1557 </r>
       <r>     9.7839    16.1117   120.0388 </r>
       <r>     9.8387    16.5925   120.9482 </r>
       <r>     9.8935    15.5132   121.7985 </r>
       <r>     9.9483    14.9255   122.6166 </r>
       <r>    10.0031    14.7624   123.4258 </r>
       <r>    10.0579    13.9539   124.1906 </r>
       <r>    10.1127    13.3562   124.9227 </r>
       <r>    10.1676    12.4508   125.6051 </r>
       <r>    10.2224    14.0252   126.3739 </r>
       <r>    10.2772    14.3913   127.1627 </r>
       <r>    10.3320    13.3225   127.8929 </r>
       <r>    10.3868    13.0047   128.6057 </r>
       <r>    10.4416    16.0383   129.4848 </r>
       <r>    10.4964    16.6816   130.3991 </r>
       <r>    10.5512    14.7115   131.2055 </r>
       <r>    10.6060    15.8840   132.0761 </r>
       <r>    10.6609    14.9973   132.8981 </r>
       <r>    10.7157    14.6245   133.6997 </r>
       <r>    10.7705    14.4753   134.4931 </r>
       <r>    10.8253    13.2026   135.2168 </r>
       <r>    10.8801    13.7352   135.9696 </r>
       <r>    10.9349    13.0918   136.6872 </r>
       <r>    10.9897    12.5186   137.3734 </r>
       <r>    11.0445    13.3840   138.1070 </r>
       <r>    11.0993    12.9482   138.8167 </r>
       <r>    11.1542    11.8478   139.4661 </r>
       <r>    11.2090    11.1016   140.0746 </r>
       <r>    11.2638    11.3636   140.6974 </r>
       <r>    11.3186    11.6814   141.3377 </r>
       <r>    11.3734    10.9035   141.9353 </r>
       <r>    11.4282    11.3450   142.5572 </r>
       <r>    11.4830     8.1657   143.0047 </r>
       <r>    11.5378     4.6981   143.2623 </r>
       <r>    11.5926     4.7370   143.5219 </r>
       <r>    11.6475     4.0748   143.7452 </r>
       <r>    11.7023     2.8534   143.9016 </r>
       <r>    11.7571     1.4342   143.9803 </r>
       <r>    11.8119     0.3322   143.9985 </r>
       <r>    11.8667     0.0275   144.0000 </r>
       <r>    11.9215     0.0006   144.0000 </r>
       <r>    11.9763     0.0000   144.0000 </r>
       <r>    12.0311     0.0000   144.0000 </r>
       <r>    12.0860     0.0000   144.0000 </r>
       <r>    12.1408     0.0000   144.0000 </r>
       <r>    12.1956     0.0000   144.0000 </r>
       <r>    12.2504     0.0000   144.0000 </r>
       <r>    12.3052     0.0000   144.0000 </r>
       <r>    12.3600     0.0000   144.0000 </r>
       <r>    12.4148     0.0000   144.0000 </r>
       <r>    12.4696     0.0000   144.0000 </r>
       <r>    12.5244     0.0000   144.0000 </r>
      </set>
     </set>
    </array>
   </total>
  </dos>
 </calculation>
 <structure name="finalpos" >
  <crystal>
   <varray name="basis" >
    <v>       8.07809510       0.00000000       0.00000000 </v>
    <v>       0.00000000       8.07809510       0.00000000 </v>
    <v>       0.00000000       0.00000000       8.07809510 </v>
   </varray>
   <i name="volume">    527.14110776 </i>
   <varray name="rec_basis" >
    <v>       0.12379156       0.00000000       0.00000000 </v>
    <v>       0.00000000       0.12379156       0.00000000 </v>
    <v>       0.00000000       0.00000000       0.12379156 </v>
   </varray>
  </crystal>
  <varray name="positions" >
   <v>       0.00602384       0.01138551       0.02857095 </v>
   <v>       0.00811293       0.25154080       0.25833665 </v>
   <v>       0.25446158       0.01398775       0.24492704 </v>
   <v>       0.25902468       0.23681481       0.98447433 </v>
   <v>       0.98867693       0.99875610       0.50186948 </v>
   <v>       0.99911610       0.25262983       0.76167862 </v>
   <v>       0.26639548       0.98009624       0.75658226 </v>
   <v>       0.24681212       0.25094805       0.50427106 </v>
   <v>       0.99081808       0.50451664       0.00346157 </v>
   <v>       0.99293211       0.75273159       0.25138103 </v>
   <v>       0.24587872       0.52604599       0.23685692 </v>
   <v>       0.24252397       0.75566192       0.00119213 </v>
   <v>       0.99596075       0.49232695       0.51138585 </v>
   <v>       0.01400325       0.74106546       0.75751790 </v>
   <v>       0.24966454       0.49687662       0.74275771 </v>
   <v>       0.22599274       0.75487209       0.48627293 </v>
   <v>       0.50927527       0.99020841       0.98691969 </v>
   <v>       0.49019751       0.24403379       0.22933056 </v>
   <v>       0.73322373       0.99427384       0.23405628 </v>
   <v>       0.75031087       0.23922334       0.00505722 </v>
   <v>       0.49962383       0.98363670       0.48265384 </v>
   <v>       0.49916773       0.24340373       0.73334908 </v>
   <v>       0.76205151       0.98544386       0.74848028 </v>
   <v>       0.75316810       0.24720924       0.50530909 </v>
   <v>       0.48783405       0.51498518       0.98620004 </v>
   <v>       0.50966059       0.74447679       0.23563417 </v>
   <v>       0.75475176       0.49249493       0.25027102 </v>
   <v>       0.76912896       0.74765911       0.98807177 </v>
   <v>       0.48207405       0.52250828       0.50357572 </v>
   <v>       0.51449264       0.74928615       0.75047791 </v>
   <v>       0.73648549       0.50293520       0.74003734 </v>
   <v>       0.75277216       0.74533720       0.49844152 </v>
  </varray>
 </structure>
</modeling>
