<?xml version="1.0" encoding="ISO-8859-1"?>
<modeling>
 <generator>
  <i name="program" type="string">vasp </i>
  <i name="version" type="string">5.4.4.18Apr17-6-g9f103f2a35  </i>
  <i name="subversion" type="string">(build Oct  7 2019 15:10:45) complex            parallel </i>
  <i name="platform" type="string">LinuxGNU </i>
  <i name="date" type="string">2021 11 08 </i>
  <i name="time" type="string">10:57:16 </i>
 </generator>
 <incar>
  <i type="string" name="SYSTEM">mos2</i>
  <i type="int" name="ISTART">     0</i>
  <i type="string" name="PREC">accurate</i>
  <i type="string" name="ALGO"> Normal</i>
  <i type="int" name="NSIM">     4</i>
  <i type="int" name="NELM">  1000</i>
  <i type="int" name="NELMIN">     2</i>
  <i type="int" name="IBRION">    -1</i>
  <i name="EDIFF">      0.00000100</i>
  <i type="int" name="NSW">     0</i>
  <i name="ENCUT">    600.00000000</i>
  <i type="string" name="LREAL"> Auto</i>
  <i type="int" name="ISMEAR">     0</i>
  <i name="SIGMA">      0.05000000</i>
  <i type="logical" name="LWAVE"> F  </i>
  <i type="logical" name="LCHARG"> T  </i>
  <v type="int" name="KPOINT_BSE">    -1     0     0     0</v>
  <i type="int" name="NELM">  1000</i>
 </incar>
 <structure name="primitive_cell" >
  <crystal>
   <varray name="basis" >
    <v>       9.55219900       0.00000000       0.00000000 </v>
    <v>      -4.77610000       8.27244700       0.00000000 </v>
    <v>       0.00000000       0.00000000      18.12711300 </v>
   </varray>
   <i name="volume">   1432.40555618 </i>
   <varray name="rec_basis" >
    <v>       0.10468794       0.06044161      -0.00000000 </v>
    <v>       0.00000000       0.12088322       0.00000000 </v>
    <v>       0.00000000      -0.00000000       0.05516598 </v>
   </varray>
  </crystal>
  <varray name="positions" >
   <v>       0.01034654      -0.00518074      -0.49808245 </v>
   <v>      -0.08969718      -0.21910361       0.41957083 </v>
   <v>      -0.10582054      -0.21872746      -0.41374039 </v>
   <v>      -0.10381031       0.09027302      -0.41126950 </v>
   <v>       0.22549015       0.12628614       0.41354046 </v>
   <v>       0.24450696       0.11772460      -0.41674635 </v>
   <v>      -0.12757441       0.09416440       0.40865482 </v>
   <v>       0.34555651       0.01737961       0.49935129 </v>
   <v>      -0.32515332      -0.31972143       0.49803560 </v>
   <v>       0.01252940      -0.33548698      -0.49599869 </v>
   <v>      -0.02638532       0.30834223       0.49734905 </v>
   <v>       0.33553741       0.34099684       0.49937604 </v>
   <v>      -0.33804144      -0.00231377      -0.49844082 </v>
   <v>       0.19459662       0.42339604      -0.41504221 </v>
   <v>       0.23740671      -0.21021477      -0.41285303 </v>
   <v>       0.20029198       0.42964867       0.41399709 </v>
   <v>       0.24219553      -0.21476666       0.41398170 </v>
   <v>      -0.44057296      -0.22187192       0.41520831 </v>
   <v>      -0.45404537      -0.23036812      -0.41161633 </v>
   <v>      -0.44562402       0.12527567       0.41188982 </v>
   <v>      -0.44079278       0.11920467      -0.41662154 </v>
   <v>      -0.44553712       0.46264021      -0.41193026 </v>
   <v>      -0.12133019       0.44112022       0.41536947 </v>
   <v>      -0.44659625       0.45895201       0.41432233 </v>
   <v>      -0.13075634       0.42483872      -0.41923707 </v>
   <v>      -0.33717118       0.34391373       0.49418209 </v>
   <v>       0.32534479      -0.34741873      -0.49492924 </v>
  </varray>
 </structure>
 <varray name="primitive_index" >
  <v type="int" >        1 </v>
  <v type="int" >       27 </v>
  <v type="int" >       26 </v>
  <v type="int" >       22 </v>
  <v type="int" >       12 </v>
  <v type="int" >       11 </v>
  <v type="int" >       23 </v>
  <v type="int" >        4 </v>
  <v type="int" >        8 </v>
  <v type="int" >        9 </v>
  <v type="int" >        7 </v>
  <v type="int" >        2 </v>
  <v type="int" >        3 </v>
  <v type="int" >       13 </v>
  <v type="int" >       15 </v>
  <v type="int" >       14 </v>
  <v type="int" >       16 </v>
  <v type="int" >       18 </v>
  <v type="int" >       20 </v>
  <v type="int" >       17 </v>
  <v type="int" >       10 </v>
  <v type="int" >       19 </v>
  <v type="int" >       25 </v>
  <v type="int" >       21 </v>
  <v type="int" >       24 </v>
  <v type="int" >        6 </v>
  <v type="int" >        5 </v>
 </varray>
 <kpoints>
  <generation param="Gamma">
   <v type="int" name="divisions">       6        6        1 </v>
   <v name="usershift">      0.00000000       0.00000000       0.00000000 </v>
   <v name="genvec1">      0.16666667       0.00000000       0.00000000 </v>
   <v name="genvec2">      0.00000000       0.16666667       0.00000000 </v>
   <v name="genvec3">      0.00000000       0.00000000       1.00000000 </v>
   <v name="shift">      0.00000000       0.00000000       0.00000000 </v>
  </generation>
  <varray name="kpointlist" >
   <v>       0.00000000       0.00000000       0.00000000 </v>
   <v>       0.16666667       0.00000000       0.00000000 </v>
   <v>       0.33333333       0.00000000       0.00000000 </v>
   <v>       0.50000000       0.00000000       0.00000000 </v>
   <v>       0.00000000       0.16666667       0.00000000 </v>
   <v>       0.16666667       0.16666667       0.00000000 </v>
   <v>       0.33333333       0.16666667       0.00000000 </v>
   <v>       0.50000000       0.16666667       0.00000000 </v>
   <v>      -0.33333333       0.16666667       0.00000000 </v>
   <v>      -0.16666667       0.16666667       0.00000000 </v>
   <v>       0.00000000       0.33333333       0.00000000 </v>
   <v>       0.16666667       0.33333333       0.00000000 </v>
   <v>       0.33333333       0.33333333       0.00000000 </v>
   <v>       0.50000000       0.33333333       0.00000000 </v>
   <v>      -0.33333333       0.33333333       0.00000000 </v>
   <v>      -0.16666667       0.33333333       0.00000000 </v>
   <v>       0.00000000       0.50000000       0.00000000 </v>
   <v>       0.16666667       0.50000000       0.00000000 </v>
   <v>       0.33333333       0.50000000       0.00000000 </v>
   <v>       0.50000000       0.50000000       0.00000000 </v>
  </varray>
  <varray name="weights" >
   <v>       0.02777778 </v>
   <v>       0.05555556 </v>
   <v>       0.05555556 </v>
   <v>       0.02777778 </v>
   <v>       0.05555556 </v>
   <v>       0.05555556 </v>
   <v>       0.05555556 </v>
   <v>       0.05555556 </v>
   <v>       0.05555556 </v>
   <v>       0.05555556 </v>
   <v>       0.05555556 </v>
   <v>       0.05555556 </v>
   <v>       0.05555556 </v>
   <v>       0.05555556 </v>
   <v>       0.05555556 </v>
   <v>       0.05555556 </v>
   <v>       0.02777778 </v>
   <v>       0.05555556 </v>
   <v>       0.05555556 </v>
   <v>       0.02777778 </v>
  </varray>
 </kpoints>
 <parameters>
  <separator name="general" >
   <i type="string" name="SYSTEM">mos2</i>
   <i type="logical" name="LCOMPAT"> F  </i>
  </separator>
  <separator name="electronic" >
   <i type="string" name="PREC">accura</i>
   <i name="ENMAX">    600.00000000</i>
   <i name="ENAUG">    446.01400000</i>
   <i name="EDIFF">      0.00000100</i>
   <i type="int" name="IALGO">    38</i>
   <i type="int" name="IWAVPR">    10</i>
   <i type="int" name="NBANDS">   140</i>
   <i name="NELECT">    234.00000000</i>
   <i type="int" name="TURBO">     0</i>
   <i type="int" name="IRESTART">     0</i>
   <i type="int" name="NREBOOT">     0</i>
   <i type="int" name="NMIN">     0</i>
   <i name="EREF">      0.00000000</i>
   <separator name="electronic smearing" >
    <i type="int" name="ISMEAR">     0</i>
    <i name="SIGMA">      0.05000000</i>
    <i name="KSPACING">      0.50000000</i>
    <i type="logical" name="KGAMMA"> T  </i>
   </separator>
   <separator name="electronic projectors" >
    <i type="logical" name="LREAL"> T  </i>
    <v name="ROPT">     -0.00025000     -0.00025000</v>
    <i type="int" name="LMAXPAW">  -100</i>
    <i type="int" name="LMAXMIX">     2</i>
    <i type="logical" name="NLSPLINE"> F  </i>
   </separator>
   <separator name="electronic startup" >
    <i type="int" name="ISTART">     0</i>
    <i type="int" name="ICHARG">     2</i>
    <i type="int" name="INIWAV">     1</i>
   </separator>
   <separator name="electronic spin" >
    <i type="int" name="ISPIN">     1</i>
    <i type="logical" name="LNONCOLLINEAR"> F  </i>
    <v name="MAGMOM">      1.00000000      1.00000000      1.00000000      1.00000000      1.00000000      1.00000000      1.00000000      1.00000000      1.00000000      1.00000000      1.00000000      1.00000000      1.00000000      1.00000000      1.00000000      1.00000000      1.00000000      1.00000000      1.00000000      1.00000000
      1.00000000      1.00000000      1.00000000      1.00000000      1.00000000      1.00000000      1.00000000</v>
    <i name="NUPDOWN">     -1.00000000</i>
    <i type="logical" name="LSORBIT"> F  </i>
    <v name="SAXIS">      0.00000000      0.00000000      1.00000000</v>
    <i type="logical" name="LSPIRAL"> F  </i>
    <v name="QSPIRAL">      0.00000000      0.00000000      0.00000000</v>
    <i type="logical" name="LZEROZ"> F  </i>
   </separator>
   <separator name="electronic exchange-correlation" >
    <i type="logical" name="LASPH"> F  </i>
    <i type="logical" name="LMETAGGA"> F  </i>
   </separator>
   <separator name="electronic convergence" >
    <i type="int" name="NELM">  1000</i>
    <i type="int" name="NELMDL">    -5</i>
    <i type="int" name="NELMIN">     2</i>
    <i name="ENINI">    600.00000000</i>
    <separator name="electronic convergence detail" >
     <i type="logical" name="LDIAG"> T  </i>
     <i type="logical" name="LSUBROT"> F  </i>
     <i name="WEIMIN">      0.00000000</i>
     <i name="EBREAK">      0.00000000</i>
     <i name="DEPER">      0.30000000</i>
     <i type="int" name="NRMM">     4</i>
     <i name="TIME">      0.40000000</i>
    </separator>
   </separator>
   <separator name="electronic mixer" >
    <i name="AMIX">      0.40000000</i>
    <i name="BMIX">      1.00000000</i>
    <i name="AMIN">      0.10000000</i>
    <i name="AMIX_MAG">      1.60000000</i>
    <i name="BMIX_MAG">      1.00000000</i>
    <separator name="electronic mixer details" >
     <i type="int" name="IMIX">     4</i>
     <i type="logical" name="MIXFIRST"> F  </i>
     <i type="int" name="MAXMIX">   -45</i>
     <i name="WC">    100.00000000</i>
     <i type="int" name="INIMIX">     1</i>
     <i type="int" name="MIXPRE">     1</i>
     <i type="int" name="MREMOVE">     5</i>
    </separator>
   </separator>
   <separator name="electronic dipolcorrection" >
    <i type="logical" name="LDIPOL"> F  </i>
    <i type="logical" name="LMONO"> F  </i>
    <i type="int" name="IDIPOL">     0</i>
    <i name="EPSILON">      1.00000000</i>
    <v name="DIPOL">   -100.00000000   -100.00000000   -100.00000000</v>
    <i name="EFIELD">      0.00000000</i>
   </separator>
  </separator>
  <separator name="grids" >
   <i type="int" name="NGX">    80</i>
   <i type="int" name="NGY">    80</i>
   <i type="int" name="NGZ">   150</i>
   <i type="int" name="NGXF">   160</i>
   <i type="int" name="NGYF">   160</i>
   <i type="int" name="NGZF">   300</i>
   <i type="logical" name="ADDGRID"> F  </i>
  </separator>
  <separator name="ionic" >
   <i type="int" name="NSW">     0</i>
   <i type="int" name="IBRION">    -1</i>
   <i type="int" name="MDALGO">     0</i>
   <i type="int" name="ISIF">     2</i>
   <i name="PSTRESS">      0.00000000</i>
   <i name="EDIFFG">      0.00001000</i>
   <i type="int" name="NFREE">     0</i>
   <i name="POTIM">      0.50000000</i>
   <i name="SMASS">     -3.00000000</i>
   <i name="SCALEE">      1.00000000</i>
  </separator>
  <separator name="ionic md" >
   <i name="TEBEG">      0.00010000</i>
   <i name="TEEND">      0.00010000</i>
   <i type="int" name="NBLOCK">     1</i>
   <i type="int" name="KBLOCK">     1</i>
   <i type="int" name="NPACO">   256</i>
   <i name="APACO">     16.00000000</i>
  </separator>
  <separator name="symmetry" >
   <i type="int" name="ISYM">     2</i>
   <i name="SYMPREC">      0.00001000</i>
  </separator>
  <separator name="dos" >
   <i type="int" name="LORBIT">     0</i>
   <v name="RWIGS">     -1.00000000     -1.00000000</v>
   <i type="int" name="NEDOS">   301</i>
   <i name="EMIN">     10.00000000</i>
   <i name="EMAX">    -10.00000000</i>
   <i name="EFERMI">      0.00000000</i>
  </separator>
  <separator name="writing" >
   <i type="int" name="NWRITE">     2</i>
   <i type="logical" name="LWAVE"> F  </i>
   <i type="logical" name="LDOWNSAMPLE"> F  </i>
   <i type="logical" name="LCHARG"> T  </i>
   <i type="logical" name="LPARD"> F  </i>
   <i type="logical" name="LVTOT"> F  </i>
   <i type="logical" name="LVHAR"> F  </i>
   <i type="logical" name="LELF"> F  </i>
   <i type="logical" name="LOPTICS"> F  </i>
   <v name="STM">      0.00000000      0.00000000      0.00000000      0.00000000      0.00000000      0.00000000      0.00000000</v>
  </separator>
  <separator name="performance" >
   <i type="int" name="NPAR">     4</i>
   <i type="int" name="NSIM">     4</i>
   <i type="int" name="NBLK">    -1</i>
   <i type="logical" name="LPLANE"> T  </i>
   <i type="logical" name="LSCALAPACK"> T  </i>
   <i type="logical" name="LSCAAWARE"> F  </i>
   <i type="logical" name="LSCALU"> F  </i>
   <i type="logical" name="LASYNC"> F  </i>
   <i type="logical" name="LORBITALREAL"> F  </i>
  </separator>
  <separator name="miscellaneous" >
   <i type="int" name="IDIOT">     3</i>
   <i type="int" name="ISPECIAL">     0</i>
   <i type="logical" name="LMUSIC"> F  </i>
   <v name="POMASS">     95.94000000     32.06600000</v>
   <v name="DARWINR">      0.00000000      0.00000000</v>
   <v name="DARWINV">      1.00000000      1.00000000</v>
   <i type="logical" name="LCORR"> T  </i>
  </separator>
  <i type="logical" name="GGA_COMPAT"> T  </i>
  <i type="logical" name="LBERRY"> F  </i>
  <i type="int" name="ICORELEVEL">     0</i>
  <i type="logical" name="LDAU"> F  </i>
  <i type="int" name="I_CONSTRAINED_M">     0</i>
  <separator name="electronic exchange-correlation" >
   <i type="string" name="GGA">--</i>
   <i type="int" name="VOSKOWN">     0</i>
   <i type="logical" name="LHFCALC"> F  </i>
   <i type="string" name="PRECFOCK"></i>
   <i type="logical" name="LSYMGRAD"> F  </i>
   <i type="logical" name="LHFONE"> F  </i>
   <i type="logical" name="LRHFCALC"> F  </i>
   <i type="logical" name="LTHOMAS"> F  </i>
   <i type="logical" name="LMODELHF"> F  </i>
   <i name="ENCUT4O">     -1.00000000</i>
   <i type="int" name="EXXOEP">     0</i>
   <i type="int" name="FOURORBIT">     0</i>
   <i name="AEXX">      0.00000000</i>
   <i name="HFALPHA">      0.00000000</i>
   <i name="MCALPHA">      0.00000000</i>
   <i name="ALDAX">      1.00000000</i>
   <i name="AGGAX">      1.00000000</i>
   <i name="ALDAC">      1.00000000</i>
   <i name="AGGAC">      1.00000000</i>
   <i type="int" name="NKREDX">     1</i>
   <i type="int" name="NKREDY">     1</i>
   <i type="int" name="NKREDZ">     1</i>
   <i type="logical" name="SHIFTRED"> F  </i>
   <i type="logical" name="ODDONLY"> F  </i>
   <i type="logical" name="EVENONLY"> F  </i>
   <i type="int" name="LMAXFOCK">     0</i>
   <i type="int" name="NMAXFOCKAE">     0</i>
   <i type="logical" name="LFOCKAEDFT"> F  </i>
   <i name="HFSCREEN">      0.00000000</i>
   <i name="HFSCREENC">      0.00000000</i>
   <i type="int" name="NBANDSGWLOW">     0</i>
  </separator>
  <separator name="vdW DFT" >
   <i type="logical" name="LUSE_VDW"> F  </i>
   <i name="Zab_VDW">     -0.84910000</i>
   <i name="PARAM1">      0.12340000</i>
   <i name="PARAM2">      1.00000000</i>
   <i name="PARAM3">      0.00000000</i>
  </separator>
  <separator name="model GW" >
   <i type="int" name="MODEL_GW">     0</i>
   <i name="MODEL_EPS0">     31.83123458</i>
   <i name="MODEL_ALPHA">      1.00000000</i>
  </separator>
  <separator name="linear response parameters" >
   <i type="logical" name="LEPSILON"> F  </i>
   <i type="logical" name="LRPA"> F  </i>
   <i type="logical" name="LNABLA"> F  </i>
   <i type="logical" name="LVEL"> F  </i>
   <i type="int" name="KINTER">     0</i>
   <i name="CSHIFT">      0.10000000</i>
   <i name="OMEGAMAX">     -1.00000000</i>
   <i name="DEG_THRESHOLD">      0.00200000</i>
   <i name="RTIME">     -0.10000000</i>
   <i name="WPLASMAI">      0.00000000</i>
   <v name="DFIELD">      0.00000000      0.00000000      0.00000000</v>
   <v name="WPLASMA">      0.00000000      0.00000000      0.00000000      0.00000000      0.00000000      0.00000000      0.00000000      0.00000000      0.00000000</v>
  </separator>
  <separator name="orbital magnetization" >
   <i type="logical" name="NUCIND"> F  </i>
   <v name="MAGPOS">      0.00000000      0.00000000      0.00000000</v>
   <i type="logical" name="LNICSALL"> T  </i>
   <i type="logical" name="ORBITALMAG"> F  </i>
   <i type="logical" name="LMAGBLOCH"> F  </i>
   <i type="logical" name="LCHIMAG"> F  </i>
   <i type="logical" name="LGAUGE"> T  </i>
   <i type="int" name="MAGATOM">     0</i>
   <v name="MAGDIPOL">      0.00000000      0.00000000      0.00000000</v>
   <v name="AVECCONST">      0.00000000      0.00000000      0.00000000</v>
  </separator>
  <separator name="response functions" >
   <i type="logical" name="LADDER"> F  </i>
   <i type="logical" name="LRPAFORCE"> F  </i>
   <i type="logical" name="LFXC"> F  </i>
   <i type="logical" name="LHARTREE"> T  </i>
   <i type="int" name="IBSE">     0</i>
   <v type="int" name="KPOINT">    -1     0     0     0</v>
   <i type="logical" name="LTCTE"> F  </i>
   <i type="logical" name="LTETE"> F  </i>
   <i type="logical" name="LTRIPLET"> F  </i>
   <i type="logical" name="LFXCEPS"> F  </i>
   <i type="logical" name="LFXHEG"> F  </i>
   <i type="int" name="NATURALO">     2</i>
   <i type="logical" name="L2ORDER"> F  </i>
   <i type="logical" name="LMP2LT"> F  </i>
   <i type="logical" name="LUSEW"> F  </i>
   <i name="ENCUTGW">     -2.00000000</i>
   <i name="ENCUTGWSOFT">     -2.00000000</i>
   <i name="ENCUTLF">     -1.00000000</i>
   <i type="int" name="LMAXMP2">    -1</i>
   <i name="SCISSOR">      0.00000000</i>
   <i type="int" name="NOMEGA">     0</i>
   <i type="int" name="NOMEGAR">     0</i>
   <i type="int" name="NBANDSGW">    -1</i>
   <i type="int" name="NBANDSO">    -1</i>
   <i type="int" name="NBANDSV">    -1</i>
   <i type="int" name="NELM">  1000</i>
   <i type="int" name="NELMHF">     1</i>
   <i type="int" name="DIM">     3</i>
   <i type="int" name="ANTIRES">     0</i>
   <i name="OMEGAMAX">    -30.00000000</i>
   <i name="OMEGAMIN">    -30.00000000</i>
   <i name="OMEGATL">   -200.00000000</i>
   <i type="int" name="OMEGAGRID">   140</i>
   <i name="CSHIFT">     -0.10000000</i>
   <i type="logical" name="SELFENERGY"> F  </i>
   <i type="logical" name="LSPECTRAL"> F  </i>
   <i type="logical" name="LSPECTRALGW"> F  </i>
   <i type="logical" name="LSINGLES"> F  </i>
   <i type="logical" name="LFERMIGW"> F  </i>
   <i type="logical" name="ODDONLYGW"> F  </i>
   <i type="logical" name="EVENONLYGW"> F  </i>
   <i type="int" name="NKREDLFX">     1</i>
   <i type="int" name="NKREDLFY">     1</i>
   <i type="int" name="NKREDLFZ">     1</i>
   <i type="int" name="MAXMEM">  2800</i>
   <i type="int" name="TELESCOPE">     0</i>
   <i type="int" name="TAUPAR">     1</i>
   <i type="int" name="OMEGAPAR">    -1</i>
   <i name="LAMBDA">      1.00000000</i>
  </separator>
  <separator name="External order field" >
   <i name="OFIELD_KAPPA">      0.00000000</i>
   <v name="OFIELD_K">      0.00000000      0.00000000      0.00000000</v>
   <i name="OFIELD_Q6_NEAR">      0.00000000</i>
   <i name="OFIELD_Q6_FAR">      0.00000000</i>
   <i name="OFIELD_A">      0.00000000</i>
  </separator>
 </parameters>
 <atominfo>
  <atoms>      27 </atoms>
  <types>       2 </types>
  <array name="atoms" >
   <dimension dim="1">ion</dimension>
   <field type="string">element</field>
   <field type="int">atomtype</field>
   <set>
    <rc><c>Mo</c><c>   1</c></rc>
    <rc><c>Mo</c><c>   1</c></rc>
    <rc><c>Mo</c><c>   1</c></rc>
    <rc><c>Mo</c><c>   1</c></rc>
    <rc><c>Mo</c><c>   1</c></rc>
    <rc><c>Mo</c><c>   1</c></rc>
    <rc><c>Mo</c><c>   1</c></rc>
    <rc><c>Mo</c><c>   1</c></rc>
    <rc><c>Mo</c><c>   1</c></rc>
    <rc><c>S </c><c>   2</c></rc>
    <rc><c>S </c><c>   2</c></rc>
    <rc><c>S </c><c>   2</c></rc>
    <rc><c>S </c><c>   2</c></rc>
    <rc><c>S </c><c>   2</c></rc>
    <rc><c>S </c><c>   2</c></rc>
    <rc><c>S </c><c>   2</c></rc>
    <rc><c>S </c><c>   2</c></rc>
    <rc><c>S </c><c>   2</c></rc>
    <rc><c>S </c><c>   2</c></rc>
    <rc><c>S </c><c>   2</c></rc>
    <rc><c>S </c><c>   2</c></rc>
    <rc><c>S </c><c>   2</c></rc>
    <rc><c>S </c><c>   2</c></rc>
    <rc><c>S </c><c>   2</c></rc>
    <rc><c>S </c><c>   2</c></rc>
    <rc><c>S </c><c>   2</c></rc>
    <rc><c>S </c><c>   2</c></rc>
   </set>
  </array>
  <array name="atomtypes" >
   <dimension dim="1">type</dimension>
   <field type="int">atomspertype</field>
   <field type="string">element</field>
   <field>mass</field>
   <field>valence</field>
   <field type="string">pseudopotential</field>
   <set>
    <rc><c>   9</c><c>Mo</c><c>     95.94000000</c><c>     14.00000000</c><c>  PAW_PBE Mo_sv 02Feb2006               </c></rc>
    <rc><c>  18</c><c>S </c><c>     32.06600000</c><c>      6.00000000</c><c>  PAW_PBE S 06Sep2000                   </c></rc>
   </set>
  </array>
 </atominfo>
 <structure name="initialpos" >
  <crystal>
   <varray name="basis" >
    <v>       9.55219900       0.00000000       0.00000000 </v>
    <v>      -4.77610000       8.27244700       0.00000000 </v>
    <v>       0.00000000       0.00000000      18.12711300 </v>
   </varray>
   <i name="volume">   1432.40555618 </i>
   <varray name="rec_basis" >
    <v>       0.10468794       0.06044161      -0.00000000 </v>
    <v>       0.00000000       0.12088322       0.00000000 </v>
    <v>       0.00000000      -0.00000000       0.05516598 </v>
   </varray>
  </crystal>
  <varray name="positions" >
   <v>       0.01034654       0.99481926       0.50191755 </v>
   <v>       0.33553741       0.34099684       0.49937604 </v>
   <v>       0.66195856       0.99768623       0.50155918 </v>
   <v>       0.34555651       0.01737961       0.49935129 </v>
   <v>       0.32534479       0.65258127       0.50507076 </v>
   <v>       0.66282882       0.34391373       0.49418209 </v>
   <v>       0.97361468       0.30834223       0.49734905 </v>
   <v>       0.67484668       0.68027857       0.49803560 </v>
   <v>       0.01252940       0.66451302       0.50400131 </v>
   <v>       0.55920722       0.11920467       0.58337846 </v>
   <v>       0.24450696       0.11772460       0.58325365 </v>
   <v>       0.22549015       0.12628614       0.41354046 </v>
   <v>       0.19459662       0.42339604       0.58495779 </v>
   <v>       0.20029198       0.42964867       0.41399709 </v>
   <v>       0.23740671       0.78978523       0.58714697 </v>
   <v>       0.24219553       0.78523334       0.41398170 </v>
   <v>       0.55437598       0.12527567       0.41188982 </v>
   <v>       0.55942704       0.77812808       0.41520831 </v>
   <v>       0.55446288       0.46264021       0.58806974 </v>
   <v>       0.54595463       0.76963188       0.58838367 </v>
   <v>       0.55340375       0.45895201       0.41432233 </v>
   <v>       0.89618969       0.09027302       0.58873050 </v>
   <v>       0.87242559       0.09416440       0.40865482 </v>
   <v>       0.86924366       0.42483872       0.58076293 </v>
   <v>       0.87866981       0.44112022       0.41536947 </v>
   <v>       0.89417946       0.78127254       0.58625961 </v>
   <v>       0.91030282       0.78089639       0.41957083 </v>
  </varray>
 </structure>
 <calculation>
  <scstep>
   <time name="dav">   83.12   83.55</time>
   <time name="total">   83.69   84.13</time>
   <energy>
    <i name="alphaZ">    267.51052480 </i>
    <i name="ewald">  40418.18068434 </i>
    <i name="hartreedc"> -59483.79891519 </i>
    <i name="XCdc">    822.76527699 </i>
    <i name="pawpsdc">  17395.10119161 </i>
    <i name="pawaedc"> -17171.31696658 </i>
    <i name="eentropy">     -0.01959728 </i>
    <i name="bandstr">  -1783.15278053 </i>
    <i name="atom">  21743.34108040 </i>
    <i name="e_fr_energy">   2208.61049855 </i>
    <i name="e_wo_entrp">   2208.63009584 </i>
    <i name="e_0_energy">   2208.62029720 </i>
   </energy>
  </scstep>
  <scstep>
   <time name="dav">   88.33   88.78</time>
   <time name="total">   88.33   88.79</time>
   <energy>
    <i name="e_fr_energy">      8.61609202 </i>
    <i name="e_wo_entrp">      8.61609202 </i>
    <i name="e_0_energy">      8.61609202 </i>
   </energy>
  </scstep>
  <scstep>
   <time name="dav">   78.33   78.74</time>
   <time name="total">   78.33   78.75</time>
   <energy>
    <i name="e_fr_energy">   -199.45981011 </i>
    <i name="e_wo_entrp">   -199.45981011 </i>
    <i name="e_0_energy">   -199.45981011 </i>
   </energy>
  </scstep>
  <scstep>
   <time name="dav">   87.41   87.86</time>
   <time name="total">   87.41   87.86</time>
   <energy>
    <i name="e_fr_energy">   -207.85088415 </i>
    <i name="e_wo_entrp">   -207.85088415 </i>
    <i name="e_0_energy">   -207.85088415 </i>
   </energy>
  </scstep>
  <scstep>
   <time name="dav">   92.86   93.38</time>
   <time name="total">   99.21   99.76</time>
   <energy>
    <i name="e_fr_energy">   -208.11000951 </i>
    <i name="e_wo_entrp">   -208.11000951 </i>
    <i name="e_0_energy">   -208.11000951 </i>
   </energy>
  </scstep>
  <scstep>
   <time name="dav">   76.60   77.03</time>
   <time name="total">   83.46   83.93</time>
   <energy>
    <i name="e_fr_energy">   -198.09716572 </i>
    <i name="e_wo_entrp">   -198.09716572 </i>
    <i name="e_0_energy">   -198.09716572 </i>
   </energy>
  </scstep>
  <scstep>
   <time name="dav">   75.44   75.87</time>
   <time name="total">   82.27   82.73</time>
   <energy>
    <i name="e_fr_energy">   -196.35310387 </i>
    <i name="e_wo_entrp">   -196.35310387 </i>
    <i name="e_0_energy">   -196.35310387 </i>
   </energy>
  </scstep>
  <scstep>
   <time name="dav">   81.62   82.08</time>
   <time name="total">   88.42   88.91</time>
   <energy>
    <i name="e_fr_energy">   -194.72078855 </i>
    <i name="e_wo_entrp">   -194.72078855 </i>
    <i name="e_0_energy">   -194.72078855 </i>
   </energy>
  </scstep>
  <scstep>
   <time name="dav">   86.85   87.32</time>
   <time name="total">   93.67   94.17</time>
   <energy>
    <i name="e_fr_energy">   -194.60199490 </i>
    <i name="e_wo_entrp">   -194.60199490 </i>
    <i name="e_0_energy">   -194.60199490 </i>
   </energy>
  </scstep>
  <scstep>
   <time name="dav">   85.15   85.63</time>
   <time name="total">   91.96   92.47</time>
   <energy>
    <i name="e_fr_energy">   -194.53509768 </i>
    <i name="e_wo_entrp">   -194.53509768 </i>
    <i name="e_0_energy">   -194.53509768 </i>
   </energy>
  </scstep>
  <scstep>
   <time name="dav">   87.63   88.12</time>
   <time name="total">   94.47   94.99</time>
   <energy>
    <i name="e_fr_energy">   -194.51506767 </i>
    <i name="e_wo_entrp">   -194.51506767 </i>
    <i name="e_0_energy">   -194.51506767 </i>
   </energy>
  </scstep>
  <scstep>
   <time name="dav">   86.08   86.57</time>
   <time name="total">   92.93   93.45</time>
   <energy>
    <i name="e_fr_energy">   -194.51008160 </i>
    <i name="e_wo_entrp">   -194.51008160 </i>
    <i name="e_0_energy">   -194.51008160 </i>
   </energy>
  </scstep>
  <scstep>
   <time name="dav">   84.33   84.80</time>
   <time name="total">   91.16   91.66</time>
   <energy>
    <i name="e_fr_energy">   -194.50623357 </i>
    <i name="e_wo_entrp">   -194.50623357 </i>
    <i name="e_0_energy">   -194.50623357 </i>
   </energy>
  </scstep>
  <scstep>
   <time name="dav">   84.58   85.06</time>
   <time name="total">   91.43   91.93</time>
   <energy>
    <i name="e_fr_energy">   -194.50543717 </i>
    <i name="e_wo_entrp">   -194.50543717 </i>
    <i name="e_0_energy">   -194.50543717 </i>
   </energy>
  </scstep>
  <scstep>
   <time name="dav">   83.46   83.93</time>
   <time name="total">   90.31   90.80</time>
   <energy>
    <i name="e_fr_energy">   -194.50519499 </i>
    <i name="e_wo_entrp">   -194.50519499 </i>
    <i name="e_0_energy">   -194.50519499 </i>
   </energy>
  </scstep>
  <scstep>
   <time name="dav">   80.96   81.41</time>
   <time name="total">   87.78   88.27</time>
   <energy>
    <i name="e_fr_energy">   -194.50523639 </i>
    <i name="e_wo_entrp">   -194.50523639 </i>
    <i name="e_0_energy">   -194.50523639 </i>
   </energy>
  </scstep>
  <scstep>
   <time name="dav">   79.74   80.18</time>
   <time name="total">   86.59   87.05</time>
   <energy>
    <i name="e_fr_energy">   -194.50562475 </i>
    <i name="e_wo_entrp">   -194.50562475 </i>
    <i name="e_0_energy">   -194.50562475 </i>
   </energy>
  </scstep>
  <scstep>
   <time name="dav">   82.95   83.41</time>
   <time name="total">   89.75   90.25</time>
   <energy>
    <i name="e_fr_energy">   -194.50611254 </i>
    <i name="e_wo_entrp">   -194.50611254 </i>
    <i name="e_0_energy">   -194.50611254 </i>
   </energy>
  </scstep>
  <scstep>
   <time name="dav">   80.47   80.90</time>
   <time name="total">   87.27   87.74</time>
   <energy>
    <i name="e_fr_energy">   -194.50651099 </i>
    <i name="e_wo_entrp">   -194.50651099 </i>
    <i name="e_0_energy">   -194.50651099 </i>
   </energy>
  </scstep>
  <scstep>
   <time name="dav">   72.85   73.25</time>
   <time name="total">   79.66   80.09</time>
   <energy>
    <i name="e_fr_energy">   -194.50658643 </i>
    <i name="e_wo_entrp">   -194.50658643 </i>
    <i name="e_0_energy">   -194.50658643 </i>
   </energy>
  </scstep>
  <scstep>
   <time name="dav">   72.10   72.50</time>
   <time name="total">   78.91   79.35</time>
   <energy>
    <i name="e_fr_energy">   -194.50676048 </i>
    <i name="e_wo_entrp">   -194.50676048 </i>
    <i name="e_0_energy">   -194.50676048 </i>
   </energy>
  </scstep>
  <scstep>
   <time name="dav">   67.92   68.27</time>
   <time name="total">   74.71   75.09</time>
   <energy>
    <i name="e_fr_energy">   -194.50689658 </i>
    <i name="e_wo_entrp">   -194.50689658 </i>
    <i name="e_0_energy">   -194.50689658 </i>
   </energy>
  </scstep>
  <scstep>
   <time name="dav">   64.79   65.12</time>
   <time name="total">   71.58   71.94</time>
   <energy>
    <i name="e_fr_energy">   -194.50696729 </i>
    <i name="e_wo_entrp">   -194.50696729 </i>
    <i name="e_0_energy">   -194.50696729 </i>
   </energy>
  </scstep>
  <scstep>
   <time name="dav">   61.20   61.51</time>
   <time name="total">   68.03   68.36</time>
   <energy>
    <i name="e_fr_energy">   -194.50709297 </i>
    <i name="e_wo_entrp">   -194.50709297 </i>
    <i name="e_0_energy">   -194.50709297 </i>
   </energy>
  </scstep>
  <scstep>
   <time name="dav">   65.70   66.04</time>
   <time name="total">   72.56   72.93</time>
   <energy>
    <i name="e_fr_energy">   -194.50721814 </i>
    <i name="e_wo_entrp">   -194.50721814 </i>
    <i name="e_0_energy">   -194.50721814 </i>
   </energy>
  </scstep>
  <scstep>
   <time name="dav">   58.45   58.76</time>
   <time name="total">   65.32   65.65</time>
   <energy>
    <i name="e_fr_energy">   -194.50725477 </i>
    <i name="e_wo_entrp">   -194.50725477 </i>
    <i name="e_0_energy">   -194.50725477 </i>
   </energy>
  </scstep>
  <scstep>
   <time name="dav">   57.44   57.76</time>
   <time name="total">   64.30   64.64</time>
   <energy>
    <i name="e_fr_energy">   -194.50728223 </i>
    <i name="e_wo_entrp">   -194.50728223 </i>
    <i name="e_0_energy">   -194.50728223 </i>
   </energy>
  </scstep>
  <scstep>
   <time name="dav">   57.48   57.79</time>
   <time name="total">   64.33   64.67</time>
   <energy>
    <i name="e_fr_energy">   -194.50730207 </i>
    <i name="e_wo_entrp">   -194.50730207 </i>
    <i name="e_0_energy">   -194.50730207 </i>
   </energy>
  </scstep>
  <scstep>
   <time name="dav">   52.01   52.31</time>
   <time name="total">   58.81   59.15</time>
   <energy>
    <i name="e_fr_energy">   -194.50730691 </i>
    <i name="e_wo_entrp">   -194.50730691 </i>
    <i name="e_0_energy">   -194.50730691 </i>
   </energy>
  </scstep>
  <scstep>
   <time name="dav">   49.59   49.88</time>
   <time name="total">   56.38   56.70</time>
   <energy>
    <i name="e_fr_energy">   -194.50730901 </i>
    <i name="e_wo_entrp">   -194.50730901 </i>
    <i name="e_0_energy">   -194.50730901 </i>
   </energy>
  </scstep>
  <scstep>
   <time name="dav">   51.06   51.36</time>
   <time name="total">   57.85   58.18</time>
   <energy>
    <i name="e_fr_energy">   -194.50731069 </i>
    <i name="e_wo_entrp">   -194.50731069 </i>
    <i name="e_0_energy">   -194.50731069 </i>
   </energy>
  </scstep>
  <scstep>
   <time name="dav">   48.35   48.63</time>
   <time name="total">   48.87   49.16</time>
   <energy>
    <i name="alphaZ">    267.51052480 </i>
    <i name="ewald">  40418.18068434 </i>
    <i name="hartreedc"> -59453.91879026 </i>
    <i name="XCdc">    817.88408797 </i>
    <i name="pawpsdc">  26592.45277181 </i>
    <i name="pawaedc"> -26403.13086633 </i>
    <i name="eentropy">     -0.00000000 </i>
    <i name="bandstr">  -4176.82680383 </i>
    <i name="atom">  21743.34108040 </i>
    <i name="e_fr_energy">   -194.50731111 </i>
    <i name="e_wo_entrp">   -194.50731111 </i>
    <i name="e_0_energy">   -194.50731111 </i>
   </energy>
  </scstep>
  <structure>
   <crystal>
    <varray name="basis" >
     <v>       9.55219900       0.00000000       0.00000000 </v>
     <v>      -4.77610000       8.27244700       0.00000000 </v>
     <v>       0.00000000       0.00000000      18.12711300 </v>
    </varray>
    <i name="volume">   1432.40555618 </i>
    <varray name="rec_basis" >
     <v>       0.10468794       0.06044161      -0.00000000 </v>
     <v>       0.00000000       0.12088322       0.00000000 </v>
     <v>       0.00000000      -0.00000000       0.05516598 </v>
    </varray>
   </crystal>
   <varray name="positions" >
    <v>       0.01034654       0.99481926       0.50191755 </v>
    <v>       0.33553741       0.34099684       0.49937604 </v>
    <v>       0.66195856       0.99768623       0.50155918 </v>
    <v>       0.34555651       0.01737961       0.49935129 </v>
    <v>       0.32534479       0.65258127       0.50507076 </v>
    <v>       0.66282882       0.34391373       0.49418209 </v>
    <v>       0.97361468       0.30834223       0.49734905 </v>
    <v>       0.67484668       0.68027857       0.49803560 </v>
    <v>       0.01252940       0.66451302       0.50400131 </v>
    <v>       0.55920722       0.11920467       0.58337846 </v>
    <v>       0.24450696       0.11772460       0.58325365 </v>
    <v>       0.22549015       0.12628614       0.41354046 </v>
    <v>       0.19459662       0.42339604       0.58495779 </v>
    <v>       0.20029198       0.42964867       0.41399709 </v>
    <v>       0.23740671       0.78978523       0.58714697 </v>
    <v>       0.24219553       0.78523334       0.41398170 </v>
    <v>       0.55437598       0.12527567       0.41188982 </v>
    <v>       0.55942704       0.77812808       0.41520831 </v>
    <v>       0.55446288       0.46264021       0.58806974 </v>
    <v>       0.54595463       0.76963188       0.58838367 </v>
    <v>       0.55340375       0.45895201       0.41432233 </v>
    <v>       0.89618969       0.09027302       0.58873050 </v>
    <v>       0.87242559       0.09416440       0.40865482 </v>
    <v>       0.86924366       0.42483872       0.58076293 </v>
    <v>       0.87866981       0.44112022       0.41536947 </v>
    <v>       0.89417946       0.78127254       0.58625961 </v>
    <v>       0.91030282       0.78089639       0.41957083 </v>
   </varray>
  </structure>
  <varray name="forces" >
   <v>      -0.81432569       1.59480415      -0.90556752 </v>
   <v>      -0.92095595      -0.38279226       0.58388567 </v>
   <v>       0.42588168      -0.28841143      -0.46363138 </v>
   <v>       0.43190848      -2.40983686      -1.47522112 </v>
   <v>       0.08498543       1.40925050      -1.77759520 </v>
   <v>      -0.68721936      -0.73295315       2.22611400 </v>
   <v>       1.36554754       1.06191370       0.36540151 </v>
   <v>       0.34336367      -1.12683962       1.43938217 </v>
   <v>      -0.97952074       0.00845636      -0.61744515 </v>
   <v>       0.20885550       0.53357020       0.49631267 </v>
   <v>      -1.63695484       0.54871452       1.31904725 </v>
   <v>       0.60438145      -0.64626152      -0.26315746 </v>
   <v>       0.38995127       0.22274603       0.15795633 </v>
   <v>       0.27149845       0.51687929       0.24888563 </v>
   <v>      -0.19928837      -0.32513353       0.18390283 </v>
   <v>      -0.63437253      -0.48438131       0.82725001 </v>
   <v>       0.86623344      -0.66899424      -0.40156657 </v>
   <v>      -1.17326645      -0.05922950      -0.09044098 </v>
   <v>       0.66621272      -0.38243258      -0.82687772 </v>
   <v>       0.40431814       0.60071616      -0.16943899 </v>
   <v>       0.06946660       0.25161400      -0.92634041 </v>
   <v>      -1.63451043       0.56783128      -0.38857760 </v>
   <v>       0.64205021      -0.16357449       0.98614239 </v>
   <v>       0.53789633       0.99651387       1.11099893 </v>
   <v>       0.99363990       0.67642251      -1.07126293 </v>
   <v>       0.70619727      -0.77517971       0.54758377 </v>
   <v>      -0.33197373      -0.54341236      -1.11574014 </v>
  </varray>
  <varray name="stress" >
   <v>       5.63308713       0.01331910      -3.52198841 </v>
   <v>       0.01331914       5.49831409       5.60499090 </v>
   <v>      -3.52198840       5.60499094       6.02791287 </v>
  </varray>
  <energy>
   <i name="e_fr_energy">   -194.50731111 </i>
   <i name="e_wo_entrp">   -194.50731111 </i>
   <i name="e_0_energy">     -0.00000000 </i>
  </energy>
  <time name="totalsc"> 2671.99 2686.44</time>
  <eigenvalues>
   <array>
    <dimension dim="1">band</dimension>
    <dimension dim="2">kpoint</dimension>
    <dimension dim="3">spin</dimension>
    <field>eigene</field>
    <field>occ</field>
    <set>
     <set comment="spin 1">
      <set comment="kpoint 1">
       <r>  -62.4929    1.0000 </r>
       <r>  -62.4752    1.0000 </r>
       <r>  -62.4649    1.0000 </r>
       <r>  -62.4552    1.0000 </r>
       <r>  -62.4531    1.0000 </r>
       <r>  -62.4485    1.0000 </r>
       <r>  -62.4462    1.0000 </r>
       <r>  -62.4251    1.0000 </r>
       <r>  -62.4187    1.0000 </r>
       <r>  -36.7664    1.0000 </r>
       <r>  -36.7539    1.0000 </r>
       <r>  -36.7264    1.0000 </r>
       <r>  -36.7171    1.0000 </r>
       <r>  -36.7098    1.0000 </r>
       <r>  -36.7066    1.0000 </r>
       <r>  -36.6931    1.0000 </r>
       <r>  -36.6741    1.0000 </r>
       <r>  -36.6678    1.0000 </r>
       <r>  -36.6578    1.0000 </r>
       <r>  -36.6414    1.0000 </r>
       <r>  -36.5997    1.0000 </r>
       <r>  -36.5939    1.0000 </r>
       <r>  -36.5922    1.0000 </r>
       <r>  -36.5737    1.0000 </r>
       <r>  -36.5616    1.0000 </r>
       <r>  -36.5505    1.0000 </r>
       <r>  -36.5432    1.0000 </r>
       <r>  -36.5285    1.0000 </r>
       <r>  -36.5118    1.0000 </r>
       <r>  -36.5002    1.0000 </r>
       <r>  -36.4879    1.0000 </r>
       <r>  -36.4754    1.0000 </r>
       <r>  -36.4612    1.0000 </r>
       <r>  -36.4463    1.0000 </r>
       <r>  -36.3945    1.0000 </r>
       <r>  -36.3879    1.0000 </r>
       <r>  -15.7606    1.0000 </r>
       <r>  -14.6106    1.0000 </r>
       <r>  -14.5752    1.0000 </r>
       <r>  -14.4686    1.0000 </r>
       <r>  -14.4432    1.0000 </r>
       <r>  -14.4234    1.0000 </r>
       <r>  -14.3584    1.0000 </r>
       <r>  -14.2518    1.0000 </r>
       <r>  -14.0080    1.0000 </r>
       <r>  -13.9819    1.0000 </r>
       <r>  -13.9469    1.0000 </r>
       <r>  -13.8708    1.0000 </r>
       <r>  -13.8592    1.0000 </r>
       <r>  -13.7539    1.0000 </r>
       <r>  -13.6150    1.0000 </r>
       <r>  -13.5140    1.0000 </r>
       <r>  -13.4753    1.0000 </r>
       <r>  -13.3554    1.0000 </r>
       <r>   -7.2944    1.0000 </r>
       <r>   -7.0952    1.0000 </r>
       <r>   -7.0936    1.0000 </r>
       <r>   -6.9855    1.0000 </r>
       <r>   -6.9607    1.0000 </r>
       <r>   -6.8850    1.0000 </r>
       <r>   -6.8800    1.0000 </r>
       <r>   -6.8408    1.0000 </r>
       <r>   -6.8226    1.0000 </r>
       <r>   -6.3315    1.0000 </r>
       <r>   -6.2011    1.0000 </r>
       <r>   -5.9838    1.0000 </r>
       <r>   -5.9468    1.0000 </r>
       <r>   -5.8670    1.0000 </r>
       <r>   -5.8276    1.0000 </r>
       <r>   -5.8015    1.0000 </r>
       <r>   -5.7609    1.0000 </r>
       <r>   -5.7326    1.0000 </r>
       <r>   -5.7056    1.0000 </r>
       <r>   -5.5843    1.0000 </r>
       <r>   -5.5621    1.0000 </r>
       <r>   -5.5377    1.0000 </r>
       <r>   -5.5235    1.0000 </r>
       <r>   -5.4336    1.0000 </r>
       <r>   -5.3842    1.0000 </r>
       <r>   -5.2183    1.0000 </r>
       <r>   -5.1423    1.0000 </r>
       <r>   -4.8641    1.0000 </r>
       <r>   -4.7007    1.0000 </r>
       <r>   -4.6199    1.0000 </r>
       <r>   -4.5675    1.0000 </r>
       <r>   -4.4496    1.0000 </r>
       <r>   -4.3682    1.0000 </r>
       <r>   -4.3197    1.0000 </r>
       <r>   -4.2349    1.0000 </r>
       <r>   -4.1827    1.0000 </r>
       <r>   -4.0430    1.0000 </r>
       <r>   -3.8316    1.0000 </r>
       <r>   -3.7800    1.0000 </r>
       <r>   -3.5087    1.0000 </r>
       <r>   -3.3725    1.0000 </r>
       <r>   -3.3311    1.0000 </r>
       <r>   -3.2873    1.0000 </r>
       <r>   -3.2572    1.0000 </r>
       <r>   -3.2356    1.0000 </r>
       <r>   -3.2038    1.0000 </r>
       <r>   -3.1587    1.0000 </r>
       <r>   -3.1543    1.0000 </r>
       <r>   -3.1159    1.0000 </r>
       <r>   -3.0556    1.0000 </r>
       <r>   -2.9517    1.0000 </r>
       <r>   -2.9052    1.0000 </r>
       <r>   -2.7964    1.0000 </r>
       <r>   -2.7775    1.0000 </r>
       <r>   -2.6302    1.0000 </r>
       <r>   -2.5609    1.0000 </r>
       <r>   -2.5378    1.0000 </r>
       <r>   -2.4882    1.0000 </r>
       <r>   -2.4481    1.0000 </r>
       <r>   -2.3717    1.0000 </r>
       <r>   -1.6991    1.0000 </r>
       <r>   -1.6692    1.0000 </r>
       <r>   -1.4959    1.0000 </r>
       <r>   -0.1213    0.0000 </r>
       <r>   -0.0362    0.0000 </r>
       <r>    0.2523    0.0000 </r>
       <r>    0.3521    0.0000 </r>
       <r>    0.4216    0.0000 </r>
       <r>    0.4626    0.0000 </r>
       <r>    0.5139    0.0000 </r>
       <r>    0.5531    0.0000 </r>
       <r>    0.6567    0.0000 </r>
       <r>    0.7098    0.0000 </r>
       <r>    0.7509    0.0000 </r>
       <r>    0.8315    0.0000 </r>
       <r>    0.9128    0.0000 </r>
       <r>    0.9204    0.0000 </r>
       <r>    1.1080    0.0000 </r>
       <r>    1.1427    0.0000 </r>
       <r>    1.2171    0.0000 </r>
       <r>    1.3922    0.0000 </r>
       <r>    1.4188    0.0000 </r>
       <r>    1.4688    0.0000 </r>
       <r>    1.6034    0.0000 </r>
       <r>    1.6474    0.0000 </r>
       <r>    1.7349    0.0000 </r>
      </set>
      <set comment="kpoint 2">
       <r>  -62.4924    1.0000 </r>
       <r>  -62.4751    1.0000 </r>
       <r>  -62.4663    1.0000 </r>
       <r>  -62.4549    1.0000 </r>
       <r>  -62.4538    1.0000 </r>
       <r>  -62.4476    1.0000 </r>
       <r>  -62.4459    1.0000 </r>
       <r>  -62.4251    1.0000 </r>
       <r>  -62.4188    1.0000 </r>
       <r>  -36.7830    1.0000 </r>
       <r>  -36.7658    1.0000 </r>
       <r>  -36.7450    1.0000 </r>
       <r>  -36.7314    1.0000 </r>
       <r>  -36.7125    1.0000 </r>
       <r>  -36.6890    1.0000 </r>
       <r>  -36.6755    1.0000 </r>
       <r>  -36.6604    1.0000 </r>
       <r>  -36.6507    1.0000 </r>
       <r>  -36.6398    1.0000 </r>
       <r>  -36.6337    1.0000 </r>
       <r>  -36.6018    1.0000 </r>
       <r>  -36.5985    1.0000 </r>
       <r>  -36.5873    1.0000 </r>
       <r>  -36.5739    1.0000 </r>
       <r>  -36.5612    1.0000 </r>
       <r>  -36.5502    1.0000 </r>
       <r>  -36.5426    1.0000 </r>
       <r>  -36.5298    1.0000 </r>
       <r>  -36.5175    1.0000 </r>
       <r>  -36.5071    1.0000 </r>
       <r>  -36.4900    1.0000 </r>
       <r>  -36.4762    1.0000 </r>
       <r>  -36.4609    1.0000 </r>
       <r>  -36.4494    1.0000 </r>
       <r>  -36.3970    1.0000 </r>
       <r>  -36.3930    1.0000 </r>
       <r>  -15.7154    1.0000 </r>
       <r>  -14.8090    1.0000 </r>
       <r>  -14.6641    1.0000 </r>
       <r>  -14.5102    1.0000 </r>
       <r>  -14.4260    1.0000 </r>
       <r>  -14.3505    1.0000 </r>
       <r>  -14.2199    1.0000 </r>
       <r>  -14.1268    1.0000 </r>
       <r>  -14.0542    1.0000 </r>
       <r>  -14.0091    1.0000 </r>
       <r>  -13.9299    1.0000 </r>
       <r>  -13.8640    1.0000 </r>
       <r>  -13.8226    1.0000 </r>
       <r>  -13.7220    1.0000 </r>
       <r>  -13.6394    1.0000 </r>
       <r>  -13.5245    1.0000 </r>
       <r>  -13.5025    1.0000 </r>
       <r>  -13.3732    1.0000 </r>
       <r>   -7.2523    1.0000 </r>
       <r>   -7.1838    1.0000 </r>
       <r>   -7.0475    1.0000 </r>
       <r>   -7.0268    1.0000 </r>
       <r>   -6.9752    1.0000 </r>
       <r>   -6.9636    1.0000 </r>
       <r>   -6.8314    1.0000 </r>
       <r>   -6.7411    1.0000 </r>
       <r>   -6.6963    1.0000 </r>
       <r>   -6.4753    1.0000 </r>
       <r>   -6.3976    1.0000 </r>
       <r>   -6.1508    1.0000 </r>
       <r>   -6.0730    1.0000 </r>
       <r>   -6.0297    1.0000 </r>
       <r>   -5.7117    1.0000 </r>
       <r>   -5.7035    1.0000 </r>
       <r>   -5.6663    1.0000 </r>
       <r>   -5.6297    1.0000 </r>
       <r>   -5.5930    1.0000 </r>
       <r>   -5.5478    1.0000 </r>
       <r>   -5.5301    1.0000 </r>
       <r>   -5.4998    1.0000 </r>
       <r>   -5.4489    1.0000 </r>
       <r>   -5.3780    1.0000 </r>
       <r>   -5.3473    1.0000 </r>
       <r>   -5.0659    1.0000 </r>
       <r>   -5.0469    1.0000 </r>
       <r>   -4.9052    1.0000 </r>
       <r>   -4.8007    1.0000 </r>
       <r>   -4.6803    1.0000 </r>
       <r>   -4.6304    1.0000 </r>
       <r>   -4.5152    1.0000 </r>
       <r>   -4.3854    1.0000 </r>
       <r>   -4.3540    1.0000 </r>
       <r>   -4.3118    1.0000 </r>
       <r>   -4.2435    1.0000 </r>
       <r>   -4.0300    1.0000 </r>
       <r>   -3.7601    1.0000 </r>
       <r>   -3.7232    1.0000 </r>
       <r>   -3.6717    1.0000 </r>
       <r>   -3.4174    1.0000 </r>
       <r>   -3.3962    1.0000 </r>
       <r>   -3.3684    1.0000 </r>
       <r>   -3.3180    1.0000 </r>
       <r>   -3.2651    1.0000 </r>
       <r>   -3.2059    1.0000 </r>
       <r>   -3.1288    1.0000 </r>
       <r>   -3.1136    1.0000 </r>
       <r>   -3.0483    1.0000 </r>
       <r>   -3.0080    1.0000 </r>
       <r>   -2.9425    1.0000 </r>
       <r>   -2.9156    1.0000 </r>
       <r>   -2.8760    1.0000 </r>
       <r>   -2.7086    1.0000 </r>
       <r>   -2.5537    1.0000 </r>
       <r>   -2.4979    1.0000 </r>
       <r>   -2.4594    1.0000 </r>
       <r>   -2.3996    1.0000 </r>
       <r>   -2.3615    1.0000 </r>
       <r>   -2.2611    1.0000 </r>
       <r>   -1.7758    1.0000 </r>
       <r>   -1.7332    1.0000 </r>
       <r>   -1.5440    1.0000 </r>
       <r>   -0.0184    0.0000 </r>
       <r>    0.0589    0.0000 </r>
       <r>    0.2212    0.0000 </r>
       <r>    0.3282    0.0000 </r>
       <r>    0.3830    0.0000 </r>
       <r>    0.4544    0.0000 </r>
       <r>    0.5177    0.0000 </r>
       <r>    0.5699    0.0000 </r>
       <r>    0.6600    0.0000 </r>
       <r>    0.7228    0.0000 </r>
       <r>    0.8001    0.0000 </r>
       <r>    0.8628    0.0000 </r>
       <r>    0.9435    0.0000 </r>
       <r>    0.9677    0.0000 </r>
       <r>    1.0797    0.0000 </r>
       <r>    1.1298    0.0000 </r>
       <r>    1.2000    0.0000 </r>
       <r>    1.3418    0.0000 </r>
       <r>    1.3856    0.0000 </r>
       <r>    1.4093    0.0000 </r>
       <r>    1.5189    0.0000 </r>
       <r>    1.5407    0.0000 </r>
       <r>    1.6303    0.0000 </r>
      </set>
      <set comment="kpoint 3">
       <r>  -62.4913    1.0000 </r>
       <r>  -62.4748    1.0000 </r>
       <r>  -62.4690    1.0000 </r>
       <r>  -62.4568    1.0000 </r>
       <r>  -62.4520    1.0000 </r>
       <r>  -62.4467    1.0000 </r>
       <r>  -62.4453    1.0000 </r>
       <r>  -62.4251    1.0000 </r>
       <r>  -62.4189    1.0000 </r>
       <r>  -36.8070    1.0000 </r>
       <r>  -36.7799    1.0000 </r>
       <r>  -36.7600    1.0000 </r>
       <r>  -36.7449    1.0000 </r>
       <r>  -36.7295    1.0000 </r>
       <r>  -36.6661    1.0000 </r>
       <r>  -36.6555    1.0000 </r>
       <r>  -36.6369    1.0000 </r>
       <r>  -36.6294    1.0000 </r>
       <r>  -36.6157    1.0000 </r>
       <r>  -36.6049    1.0000 </r>
       <r>  -36.6034    1.0000 </r>
       <r>  -36.5955    1.0000 </r>
       <r>  -36.5817    1.0000 </r>
       <r>  -36.5729    1.0000 </r>
       <r>  -36.5614    1.0000 </r>
       <r>  -36.5504    1.0000 </r>
       <r>  -36.5422    1.0000 </r>
       <r>  -36.5369    1.0000 </r>
       <r>  -36.5275    1.0000 </r>
       <r>  -36.5214    1.0000 </r>
       <r>  -36.4961    1.0000 </r>
       <r>  -36.4795    1.0000 </r>
       <r>  -36.4655    1.0000 </r>
       <r>  -36.4543    1.0000 </r>
       <r>  -36.4057    1.0000 </r>
       <r>  -36.3991    1.0000 </r>
       <r>  -15.5834    1.0000 </r>
       <r>  -15.1004    1.0000 </r>
       <r>  -14.7553    1.0000 </r>
       <r>  -14.5818    1.0000 </r>
       <r>  -14.3764    1.0000 </r>
       <r>  -14.2093    1.0000 </r>
       <r>  -14.1619    1.0000 </r>
       <r>  -14.0516    1.0000 </r>
       <r>  -14.0248    1.0000 </r>
       <r>  -13.9856    1.0000 </r>
       <r>  -13.9054    1.0000 </r>
       <r>  -13.8317    1.0000 </r>
       <r>  -13.7897    1.0000 </r>
       <r>  -13.7004    1.0000 </r>
       <r>  -13.6653    1.0000 </r>
       <r>  -13.5669    1.0000 </r>
       <r>  -13.5346    1.0000 </r>
       <r>  -13.4205    1.0000 </r>
       <r>   -7.3646    1.0000 </r>
       <r>   -7.1356    1.0000 </r>
       <r>   -7.0701    1.0000 </r>
       <r>   -7.0044    1.0000 </r>
       <r>   -6.8544    1.0000 </r>
       <r>   -6.8261    1.0000 </r>
       <r>   -6.7995    1.0000 </r>
       <r>   -6.7645    1.0000 </r>
       <r>   -6.7414    1.0000 </r>
       <r>   -6.5855    1.0000 </r>
       <r>   -6.5039    1.0000 </r>
       <r>   -6.3383    1.0000 </r>
       <r>   -6.2855    1.0000 </r>
       <r>   -6.2422    1.0000 </r>
       <r>   -5.6847    1.0000 </r>
       <r>   -5.6373    1.0000 </r>
       <r>   -5.6029    1.0000 </r>
       <r>   -5.5580    1.0000 </r>
       <r>   -5.5295    1.0000 </r>
       <r>   -5.5061    1.0000 </r>
       <r>   -5.4323    1.0000 </r>
       <r>   -5.3890    1.0000 </r>
       <r>   -5.3672    1.0000 </r>
       <r>   -5.3055    1.0000 </r>
       <r>   -5.1039    1.0000 </r>
       <r>   -5.0021    1.0000 </r>
       <r>   -4.9452    1.0000 </r>
       <r>   -4.8525    1.0000 </r>
       <r>   -4.7932    1.0000 </r>
       <r>   -4.7262    1.0000 </r>
       <r>   -4.6220    1.0000 </r>
       <r>   -4.5719    1.0000 </r>
       <r>   -4.5100    1.0000 </r>
       <r>   -4.4783    1.0000 </r>
       <r>   -4.4264    1.0000 </r>
       <r>   -4.1660    1.0000 </r>
       <r>   -4.0844    1.0000 </r>
       <r>   -3.8872    1.0000 </r>
       <r>   -3.7028    1.0000 </r>
       <r>   -3.6239    1.0000 </r>
       <r>   -3.5799    1.0000 </r>
       <r>   -3.5513    1.0000 </r>
       <r>   -3.4817    1.0000 </r>
       <r>   -3.4143    1.0000 </r>
       <r>   -3.3556    1.0000 </r>
       <r>   -3.2950    1.0000 </r>
       <r>   -3.2524    1.0000 </r>
       <r>   -3.1946    1.0000 </r>
       <r>   -3.1221    1.0000 </r>
       <r>   -2.9089    1.0000 </r>
       <r>   -2.8412    1.0000 </r>
       <r>   -2.7578    1.0000 </r>
       <r>   -2.6710    1.0000 </r>
       <r>   -2.5999    1.0000 </r>
       <r>   -2.5006    1.0000 </r>
       <r>   -2.3505    1.0000 </r>
       <r>   -2.2862    1.0000 </r>
       <r>   -2.2544    1.0000 </r>
       <r>   -2.2014    1.0000 </r>
       <r>   -2.0790    1.0000 </r>
       <r>   -1.9237    1.0000 </r>
       <r>   -1.8804    1.0000 </r>
       <r>   -1.6417    1.0000 </r>
       <r>    0.1067    0.0000 </r>
       <r>    0.1533    0.0000 </r>
       <r>    0.2549    0.0000 </r>
       <r>    0.3357    0.0000 </r>
       <r>    0.4124    0.0000 </r>
       <r>    0.4626    0.0000 </r>
       <r>    0.5361    0.0000 </r>
       <r>    0.6039    0.0000 </r>
       <r>    0.6727    0.0000 </r>
       <r>    0.7670    0.0000 </r>
       <r>    0.8426    0.0000 </r>
       <r>    0.8855    0.0000 </r>
       <r>    0.9282    0.0000 </r>
       <r>    0.9759    0.0000 </r>
       <r>    1.0263    0.0000 </r>
       <r>    1.0717    0.0000 </r>
       <r>    1.1656    0.0000 </r>
       <r>    1.2074    0.0000 </r>
       <r>    1.2875    0.0000 </r>
       <r>    1.3096    0.0000 </r>
       <r>    1.3979    0.0000 </r>
       <r>    1.5228    0.0000 </r>
       <r>    1.5656    0.0000 </r>
      </set>
      <set comment="kpoint 4">
       <r>  -62.4907    1.0000 </r>
       <r>  -62.4743    1.0000 </r>
       <r>  -62.4706    1.0000 </r>
       <r>  -62.4575    1.0000 </r>
       <r>  -62.4511    1.0000 </r>
       <r>  -62.4464    1.0000 </r>
       <r>  -62.4451    1.0000 </r>
       <r>  -62.4251    1.0000 </r>
       <r>  -62.4190    1.0000 </r>
       <r>  -36.8163    1.0000 </r>
       <r>  -36.7852    1.0000 </r>
       <r>  -36.7653    1.0000 </r>
       <r>  -36.7491    1.0000 </r>
       <r>  -36.7371    1.0000 </r>
       <r>  -36.6563    1.0000 </r>
       <r>  -36.6471    1.0000 </r>
       <r>  -36.6310    1.0000 </r>
       <r>  -36.6213    1.0000 </r>
       <r>  -36.6073    1.0000 </r>
       <r>  -36.6026    1.0000 </r>
       <r>  -36.5942    1.0000 </r>
       <r>  -36.5852    1.0000 </r>
       <r>  -36.5745    1.0000 </r>
       <r>  -36.5651    1.0000 </r>
       <r>  -36.5589    1.0000 </r>
       <r>  -36.5551    1.0000 </r>
       <r>  -36.5462    1.0000 </r>
       <r>  -36.5394    1.0000 </r>
       <r>  -36.5351    1.0000 </r>
       <r>  -36.5272    1.0000 </r>
       <r>  -36.5012    1.0000 </r>
       <r>  -36.4832    1.0000 </r>
       <r>  -36.4728    1.0000 </r>
       <r>  -36.4550    1.0000 </r>
       <r>  -36.4096    1.0000 </r>
       <r>  -36.4018    1.0000 </r>
       <r>  -15.4028    1.0000 </r>
       <r>  -15.3394    1.0000 </r>
       <r>  -14.7859    1.0000 </r>
       <r>  -14.6086    1.0000 </r>
       <r>  -14.3247    1.0000 </r>
       <r>  -14.2614    1.0000 </r>
       <r>  -14.0597    1.0000 </r>
       <r>  -14.0471    1.0000 </r>
       <r>  -13.9974    1.0000 </r>
       <r>  -13.9626    1.0000 </r>
       <r>  -13.8817    1.0000 </r>
       <r>  -13.8330    1.0000 </r>
       <r>  -13.7628    1.0000 </r>
       <r>  -13.7207    1.0000 </r>
       <r>  -13.6677    1.0000 </r>
       <r>  -13.6039    1.0000 </r>
       <r>  -13.5091    1.0000 </r>
       <r>  -13.4670    1.0000 </r>
       <r>   -7.4330    1.0000 </r>
       <r>   -7.0911    1.0000 </r>
       <r>   -7.0323    1.0000 </r>
       <r>   -6.9336    1.0000 </r>
       <r>   -6.9145    1.0000 </r>
       <r>   -6.8811    1.0000 </r>
       <r>   -6.8204    1.0000 </r>
       <r>   -6.6229    1.0000 </r>
       <r>   -6.6161    1.0000 </r>
       <r>   -6.5671    1.0000 </r>
       <r>   -6.5321    1.0000 </r>
       <r>   -6.5145    1.0000 </r>
       <r>   -6.4456    1.0000 </r>
       <r>   -6.3714    1.0000 </r>
       <r>   -5.7136    1.0000 </r>
       <r>   -5.6300    1.0000 </r>
       <r>   -5.5667    1.0000 </r>
       <r>   -5.5468    1.0000 </r>
       <r>   -5.5016    1.0000 </r>
       <r>   -5.4641    1.0000 </r>
       <r>   -5.3863    1.0000 </r>
       <r>   -5.3550    1.0000 </r>
       <r>   -5.2687    1.0000 </r>
       <r>   -5.1496    1.0000 </r>
       <r>   -5.0905    1.0000 </r>
       <r>   -5.0287    1.0000 </r>
       <r>   -4.9531    1.0000 </r>
       <r>   -4.9296    1.0000 </r>
       <r>   -4.7686    1.0000 </r>
       <r>   -4.7484    1.0000 </r>
       <r>   -4.7058    1.0000 </r>
       <r>   -4.6751    1.0000 </r>
       <r>   -4.4683    1.0000 </r>
       <r>   -4.3544    1.0000 </r>
       <r>   -4.2332    1.0000 </r>
       <r>   -4.1650    1.0000 </r>
       <r>   -3.9917    1.0000 </r>
       <r>   -3.8822    1.0000 </r>
       <r>   -3.8525    1.0000 </r>
       <r>   -3.7638    1.0000 </r>
       <r>   -3.7020    1.0000 </r>
       <r>   -3.6031    1.0000 </r>
       <r>   -3.5694    1.0000 </r>
       <r>   -3.4785    1.0000 </r>
       <r>   -3.4270    1.0000 </r>
       <r>   -3.3128    1.0000 </r>
       <r>   -3.2853    1.0000 </r>
       <r>   -3.2569    1.0000 </r>
       <r>   -3.1606    1.0000 </r>
       <r>   -2.8289    1.0000 </r>
       <r>   -2.7637    1.0000 </r>
       <r>   -2.6939    1.0000 </r>
       <r>   -2.5565    1.0000 </r>
       <r>   -2.5397    1.0000 </r>
       <r>   -2.4848    1.0000 </r>
       <r>   -2.2797    1.0000 </r>
       <r>   -2.2189    1.0000 </r>
       <r>   -2.1493    1.0000 </r>
       <r>   -2.1318    1.0000 </r>
       <r>   -2.0324    1.0000 </r>
       <r>   -1.9957    1.0000 </r>
       <r>   -1.8654    1.0000 </r>
       <r>   -1.7640    1.0000 </r>
       <r>    0.0903    0.0000 </r>
       <r>    0.1652    0.0000 </r>
       <r>    0.2967    0.0000 </r>
       <r>    0.4282    0.0000 </r>
       <r>    0.4666    0.0000 </r>
       <r>    0.4921    0.0000 </r>
       <r>    0.5379    0.0000 </r>
       <r>    0.6211    0.0000 </r>
       <r>    0.6881    0.0000 </r>
       <r>    0.7675    0.0000 </r>
       <r>    0.8266    0.0000 </r>
       <r>    0.8595    0.0000 </r>
       <r>    0.9186    0.0000 </r>
       <r>    0.9303    0.0000 </r>
       <r>    1.0281    0.0000 </r>
       <r>    1.0600    0.0000 </r>
       <r>    1.1152    0.0000 </r>
       <r>    1.1879    0.0000 </r>
       <r>    1.2129    0.0000 </r>
       <r>    1.2495    0.0000 </r>
       <r>    1.3439    0.0000 </r>
       <r>    1.4310    0.0000 </r>
       <r>    1.5963    0.0000 </r>
      </set>
      <set comment="kpoint 5">
       <r>  -62.4923    1.0000 </r>
       <r>  -62.4760    1.0000 </r>
       <r>  -62.4646    1.0000 </r>
       <r>  -62.4557    1.0000 </r>
       <r>  -62.4544    1.0000 </r>
       <r>  -62.4475    1.0000 </r>
       <r>  -62.4454    1.0000 </r>
       <r>  -62.4252    1.0000 </r>
       <r>  -62.4187    1.0000 </r>
       <r>  -36.7764    1.0000 </r>
       <r>  -36.7663    1.0000 </r>
       <r>  -36.7515    1.0000 </r>
       <r>  -36.7336    1.0000 </r>
       <r>  -36.7126    1.0000 </r>
       <r>  -36.6892    1.0000 </r>
       <r>  -36.6788    1.0000 </r>
       <r>  -36.6570    1.0000 </r>
       <r>  -36.6453    1.0000 </r>
       <r>  -36.6395    1.0000 </r>
       <r>  -36.6361    1.0000 </r>
       <r>  -36.6050    1.0000 </r>
       <r>  -36.5940    1.0000 </r>
       <r>  -36.5893    1.0000 </r>
       <r>  -36.5739    1.0000 </r>
       <r>  -36.5618    1.0000 </r>
       <r>  -36.5488    1.0000 </r>
       <r>  -36.5429    1.0000 </r>
       <r>  -36.5295    1.0000 </r>
       <r>  -36.5149    1.0000 </r>
       <r>  -36.5049    1.0000 </r>
       <r>  -36.4931    1.0000 </r>
       <r>  -36.4825    1.0000 </r>
       <r>  -36.4560    1.0000 </r>
       <r>  -36.4490    1.0000 </r>
       <r>  -36.4008    1.0000 </r>
       <r>  -36.3902    1.0000 </r>
       <r>  -15.7155    1.0000 </r>
       <r>  -14.8103    1.0000 </r>
       <r>  -14.6251    1.0000 </r>
       <r>  -14.5714    1.0000 </r>
       <r>  -14.4246    1.0000 </r>
       <r>  -14.3206    1.0000 </r>
       <r>  -14.2375    1.0000 </r>
       <r>  -14.1178    1.0000 </r>
       <r>  -14.0569    1.0000 </r>
       <r>  -14.0037    1.0000 </r>
       <r>  -13.9265    1.0000 </r>
       <r>  -13.8605    1.0000 </r>
       <r>  -13.8218    1.0000 </r>
       <r>  -13.7284    1.0000 </r>
       <r>  -13.6403    1.0000 </r>
       <r>  -13.5234    1.0000 </r>
       <r>  -13.5069    1.0000 </r>
       <r>  -13.3720    1.0000 </r>
       <r>   -7.2526    1.0000 </r>
       <r>   -7.1817    1.0000 </r>
       <r>   -7.0653    1.0000 </r>
       <r>   -7.0184    1.0000 </r>
       <r>   -7.0107    1.0000 </r>
       <r>   -6.9382    1.0000 </r>
       <r>   -6.8028    1.0000 </r>
       <r>   -6.7530    1.0000 </r>
       <r>   -6.6956    1.0000 </r>
       <r>   -6.4755    1.0000 </r>
       <r>   -6.4131    1.0000 </r>
       <r>   -6.1663    1.0000 </r>
       <r>   -6.0635    1.0000 </r>
       <r>   -5.9776    1.0000 </r>
       <r>   -5.7390    1.0000 </r>
       <r>   -5.6890    1.0000 </r>
       <r>   -5.6630    1.0000 </r>
       <r>   -5.6207    1.0000 </r>
       <r>   -5.5896    1.0000 </r>
       <r>   -5.5552    1.0000 </r>
       <r>   -5.5188    1.0000 </r>
       <r>   -5.5000    1.0000 </r>
       <r>   -5.4424    1.0000 </r>
       <r>   -5.3922    1.0000 </r>
       <r>   -5.3673    1.0000 </r>
       <r>   -5.1008    1.0000 </r>
       <r>   -5.0148    1.0000 </r>
       <r>   -4.9063    1.0000 </r>
       <r>   -4.7743    1.0000 </r>
       <r>   -4.7330    1.0000 </r>
       <r>   -4.6079    1.0000 </r>
       <r>   -4.4915    1.0000 </r>
       <r>   -4.4203    1.0000 </r>
       <r>   -4.3450    1.0000 </r>
       <r>   -4.2839    1.0000 </r>
       <r>   -4.2472    1.0000 </r>
       <r>   -4.0625    1.0000 </r>
       <r>   -3.7777    1.0000 </r>
       <r>   -3.7230    1.0000 </r>
       <r>   -3.6539    1.0000 </r>
       <r>   -3.4624    1.0000 </r>
       <r>   -3.3876    1.0000 </r>
       <r>   -3.3555    1.0000 </r>
       <r>   -3.2810    1.0000 </r>
       <r>   -3.2593    1.0000 </r>
       <r>   -3.2079    1.0000 </r>
       <r>   -3.1701    1.0000 </r>
       <r>   -3.1012    1.0000 </r>
       <r>   -3.0541    1.0000 </r>
       <r>   -3.0114    1.0000 </r>
       <r>   -2.9655    1.0000 </r>
       <r>   -2.9221    1.0000 </r>
       <r>   -2.8040    1.0000 </r>
       <r>   -2.7044    1.0000 </r>
       <r>   -2.6035    1.0000 </r>
       <r>   -2.4806    1.0000 </r>
       <r>   -2.4408    1.0000 </r>
       <r>   -2.3878    1.0000 </r>
       <r>   -2.3582    1.0000 </r>
       <r>   -2.2796    1.0000 </r>
       <r>   -1.7775    1.0000 </r>
       <r>   -1.7291    1.0000 </r>
       <r>   -1.5477    1.0000 </r>
       <r>   -0.0196    0.0000 </r>
       <r>    0.0610    0.0000 </r>
       <r>    0.1954    0.0000 </r>
       <r>    0.3473    0.0000 </r>
       <r>    0.3970    0.0000 </r>
       <r>    0.4518    0.0000 </r>
       <r>    0.5181    0.0000 </r>
       <r>    0.5836    0.0000 </r>
       <r>    0.6473    0.0000 </r>
       <r>    0.7212    0.0000 </r>
       <r>    0.8131    0.0000 </r>
       <r>    0.8651    0.0000 </r>
       <r>    0.9334    0.0000 </r>
       <r>    0.9676    0.0000 </r>
       <r>    1.0700    0.0000 </r>
       <r>    1.1069    0.0000 </r>
       <r>    1.2172    0.0000 </r>
       <r>    1.3227    0.0000 </r>
       <r>    1.3752    0.0000 </r>
       <r>    1.4640    0.0000 </r>
       <r>    1.5059    0.0000 </r>
       <r>    1.5438    0.0000 </r>
       <r>    1.6253    0.0000 </r>
      </set>
      <set comment="kpoint 6">
       <r>  -62.4915    1.0000 </r>
       <r>  -62.4763    1.0000 </r>
       <r>  -62.4661    1.0000 </r>
       <r>  -62.4566    1.0000 </r>
       <r>  -62.4541    1.0000 </r>
       <r>  -62.4460    1.0000 </r>
       <r>  -62.4454    1.0000 </r>
       <r>  -62.4253    1.0000 </r>
       <r>  -62.4188    1.0000 </r>
       <r>  -36.7951    1.0000 </r>
       <r>  -36.7810    1.0000 </r>
       <r>  -36.7662    1.0000 </r>
       <r>  -36.7361    1.0000 </r>
       <r>  -36.7096    1.0000 </r>
       <r>  -36.7048    1.0000 </r>
       <r>  -36.6417    1.0000 </r>
       <r>  -36.6383    1.0000 </r>
       <r>  -36.6342    1.0000 </r>
       <r>  -36.6213    1.0000 </r>
       <r>  -36.6118    1.0000 </r>
       <r>  -36.6071    1.0000 </r>
       <r>  -36.5985    1.0000 </r>
       <r>  -36.5838    1.0000 </r>
       <r>  -36.5735    1.0000 </r>
       <r>  -36.5619    1.0000 </r>
       <r>  -36.5484    1.0000 </r>
       <r>  -36.5428    1.0000 </r>
       <r>  -36.5327    1.0000 </r>
       <r>  -36.5229    1.0000 </r>
       <r>  -36.5128    1.0000 </r>
       <r>  -36.4999    1.0000 </r>
       <r>  -36.4822    1.0000 </r>
       <r>  -36.4626    1.0000 </r>
       <r>  -36.4523    1.0000 </r>
       <r>  -36.4057    1.0000 </r>
       <r>  -36.3959    1.0000 </r>
       <r>  -15.6265    1.0000 </r>
       <r>  -14.9743    1.0000 </r>
       <r>  -14.8571    1.0000 </r>
       <r>  -14.4274    1.0000 </r>
       <r>  -14.3832    1.0000 </r>
       <r>  -14.3251    1.0000 </r>
       <r>  -14.1544    1.0000 </r>
       <r>  -14.1021    1.0000 </r>
       <r>  -14.0465    1.0000 </r>
       <r>  -13.9606    1.0000 </r>
       <r>  -13.8806    1.0000 </r>
       <r>  -13.8451    1.0000 </r>
       <r>  -13.7949    1.0000 </r>
       <r>  -13.7069    1.0000 </r>
       <r>  -13.6760    1.0000 </r>
       <r>  -13.5565    1.0000 </r>
       <r>  -13.5281    1.0000 </r>
       <r>  -13.4042    1.0000 </r>
       <r>   -7.2660    1.0000 </r>
       <r>   -7.2344    1.0000 </r>
       <r>   -7.1504    1.0000 </r>
       <r>   -6.9310    1.0000 </r>
       <r>   -6.8966    1.0000 </r>
       <r>   -6.8617    1.0000 </r>
       <r>   -6.7975    1.0000 </r>
       <r>   -6.7439    1.0000 </r>
       <r>   -6.6791    1.0000 </r>
       <r>   -6.6368    1.0000 </r>
       <r>   -6.4830    1.0000 </r>
       <r>   -6.3140    1.0000 </r>
       <r>   -6.2636    1.0000 </r>
       <r>   -5.9801    1.0000 </r>
       <r>   -5.8659    1.0000 </r>
       <r>   -5.6650    1.0000 </r>
       <r>   -5.6354    1.0000 </r>
       <r>   -5.5841    1.0000 </r>
       <r>   -5.5426    1.0000 </r>
       <r>   -5.4823    1.0000 </r>
       <r>   -5.4362    1.0000 </r>
       <r>   -5.4025    1.0000 </r>
       <r>   -5.3326    1.0000 </r>
       <r>   -5.2684    1.0000 </r>
       <r>   -5.1964    1.0000 </r>
       <r>   -4.9930    1.0000 </r>
       <r>   -4.9577    1.0000 </r>
       <r>   -4.8852    1.0000 </r>
       <r>   -4.8296    1.0000 </r>
       <r>   -4.7701    1.0000 </r>
       <r>   -4.6333    1.0000 </r>
       <r>   -4.5551    1.0000 </r>
       <r>   -4.5108    1.0000 </r>
       <r>   -4.4568    1.0000 </r>
       <r>   -4.2673    1.0000 </r>
       <r>   -4.2319    1.0000 </r>
       <r>   -4.0648    1.0000 </r>
       <r>   -3.9658    1.0000 </r>
       <r>   -3.6726    1.0000 </r>
       <r>   -3.6512    1.0000 </r>
       <r>   -3.5861    1.0000 </r>
       <r>   -3.4940    1.0000 </r>
       <r>   -3.4431    1.0000 </r>
       <r>   -3.4130    1.0000 </r>
       <r>   -3.3272    1.0000 </r>
       <r>   -3.2849    1.0000 </r>
       <r>   -3.2339    1.0000 </r>
       <r>   -3.0655    1.0000 </r>
       <r>   -3.0101    1.0000 </r>
       <r>   -2.9370    1.0000 </r>
       <r>   -2.8576    1.0000 </r>
       <r>   -2.8334    1.0000 </r>
       <r>   -2.7680    1.0000 </r>
       <r>   -2.6421    1.0000 </r>
       <r>   -2.5157    1.0000 </r>
       <r>   -2.4235    1.0000 </r>
       <r>   -2.2977    1.0000 </r>
       <r>   -2.2782    1.0000 </r>
       <r>   -2.2179    1.0000 </r>
       <r>   -2.1498    1.0000 </r>
       <r>   -1.9178    1.0000 </r>
       <r>   -1.8070    1.0000 </r>
       <r>   -1.6068    1.0000 </r>
       <r>    0.0704    0.0000 </r>
       <r>    0.1599    0.0000 </r>
       <r>    0.2451    0.0000 </r>
       <r>    0.3113    0.0000 </r>
       <r>    0.3853    0.0000 </r>
       <r>    0.4764    0.0000 </r>
       <r>    0.5150    0.0000 </r>
       <r>    0.5829    0.0000 </r>
       <r>    0.6976    0.0000 </r>
       <r>    0.7388    0.0000 </r>
       <r>    0.8205    0.0000 </r>
       <r>    0.9143    0.0000 </r>
       <r>    0.9631    0.0000 </r>
       <r>    0.9781    0.0000 </r>
       <r>    1.0061    0.0000 </r>
       <r>    1.0751    0.0000 </r>
       <r>    1.1733    0.0000 </r>
       <r>    1.2132    0.0000 </r>
       <r>    1.3082    0.0000 </r>
       <r>    1.3525    0.0000 </r>
       <r>    1.4487    0.0000 </r>
       <r>    1.5083    0.0000 </r>
       <r>    1.5700    0.0000 </r>
      </set>
      <set comment="kpoint 7">
       <r>  -62.4906    1.0000 </r>
       <r>  -62.4757    1.0000 </r>
       <r>  -62.4690    1.0000 </r>
       <r>  -62.4575    1.0000 </r>
       <r>  -62.4521    1.0000 </r>
       <r>  -62.4461    1.0000 </r>
       <r>  -62.4449    1.0000 </r>
       <r>  -62.4253    1.0000 </r>
       <r>  -62.4189    1.0000 </r>
       <r>  -36.8113    1.0000 </r>
       <r>  -36.7900    1.0000 </r>
       <r>  -36.7759    1.0000 </r>
       <r>  -36.7389    1.0000 </r>
       <r>  -36.7240    1.0000 </r>
       <r>  -36.6918    1.0000 </r>
       <r>  -36.6324    1.0000 </r>
       <r>  -36.6227    1.0000 </r>
       <r>  -36.6137    1.0000 </r>
       <r>  -36.6101    1.0000 </r>
       <r>  -36.6028    1.0000 </r>
       <r>  -36.5930    1.0000 </r>
       <r>  -36.5857    1.0000 </r>
       <r>  -36.5775    1.0000 </r>
       <r>  -36.5688    1.0000 </r>
       <r>  -36.5632    1.0000 </r>
       <r>  -36.5520    1.0000 </r>
       <r>  -36.5460    1.0000 </r>
       <r>  -36.5403    1.0000 </r>
       <r>  -36.5296    1.0000 </r>
       <r>  -36.5230    1.0000 </r>
       <r>  -36.5049    1.0000 </r>
       <r>  -36.4866    1.0000 </r>
       <r>  -36.4769    1.0000 </r>
       <r>  -36.4501    1.0000 </r>
       <r>  -36.4095    1.0000 </r>
       <r>  -36.4023    1.0000 </r>
       <r>  -15.4577    1.0000 </r>
       <r>  -15.2167    1.0000 </r>
       <r>  -14.9690    1.0000 </r>
       <r>  -14.4113    1.0000 </r>
       <r>  -14.3299    1.0000 </r>
       <r>  -14.2334    1.0000 </r>
       <r>  -14.1651    1.0000 </r>
       <r>  -14.1066    1.0000 </r>
       <r>  -14.0071    1.0000 </r>
       <r>  -13.9208    1.0000 </r>
       <r>  -13.8586    1.0000 </r>
       <r>  -13.8194    1.0000 </r>
       <r>  -13.7754    1.0000 </r>
       <r>  -13.7177    1.0000 </r>
       <r>  -13.6747    1.0000 </r>
       <r>  -13.6001    1.0000 </r>
       <r>  -13.5182    1.0000 </r>
       <r>  -13.4542    1.0000 </r>
       <r>   -7.3741    1.0000 </r>
       <r>   -7.2101    1.0000 </r>
       <r>   -7.0976    1.0000 </r>
       <r>   -6.9568    1.0000 </r>
       <r>   -6.8355    1.0000 </r>
       <r>   -6.8107    1.0000 </r>
       <r>   -6.7756    1.0000 </r>
       <r>   -6.7171    1.0000 </r>
       <r>   -6.6534    1.0000 </r>
       <r>   -6.5845    1.0000 </r>
       <r>   -6.5124    1.0000 </r>
       <r>   -6.4917    1.0000 </r>
       <r>   -6.3963    1.0000 </r>
       <r>   -6.2398    1.0000 </r>
       <r>   -5.8276    1.0000 </r>
       <r>   -5.6880    1.0000 </r>
       <r>   -5.6402    1.0000 </r>
       <r>   -5.5959    1.0000 </r>
       <r>   -5.5049    1.0000 </r>
       <r>   -5.4308    1.0000 </r>
       <r>   -5.3446    1.0000 </r>
       <r>   -5.2973    1.0000 </r>
       <r>   -5.2352    1.0000 </r>
       <r>   -5.1195    1.0000 </r>
       <r>   -5.0692    1.0000 </r>
       <r>   -5.0308    1.0000 </r>
       <r>   -4.9496    1.0000 </r>
       <r>   -4.8943    1.0000 </r>
       <r>   -4.8245    1.0000 </r>
       <r>   -4.7774    1.0000 </r>
       <r>   -4.6607    1.0000 </r>
       <r>   -4.6280    1.0000 </r>
       <r>   -4.4465    1.0000 </r>
       <r>   -4.3798    1.0000 </r>
       <r>   -4.2746    1.0000 </r>
       <r>   -4.2180    1.0000 </r>
       <r>   -4.0346    1.0000 </r>
       <r>   -3.9173    1.0000 </r>
       <r>   -3.8427    1.0000 </r>
       <r>   -3.7861    1.0000 </r>
       <r>   -3.7022    1.0000 </r>
       <r>   -3.6080    1.0000 </r>
       <r>   -3.5033    1.0000 </r>
       <r>   -3.4743    1.0000 </r>
       <r>   -3.4249    1.0000 </r>
       <r>   -3.3316    1.0000 </r>
       <r>   -3.2923    1.0000 </r>
       <r>   -3.1933    1.0000 </r>
       <r>   -3.0295    1.0000 </r>
       <r>   -2.8872    1.0000 </r>
       <r>   -2.8490    1.0000 </r>
       <r>   -2.6976    1.0000 </r>
       <r>   -2.6183    1.0000 </r>
       <r>   -2.5101    1.0000 </r>
       <r>   -2.4397    1.0000 </r>
       <r>   -2.3515    1.0000 </r>
       <r>   -2.1994    1.0000 </r>
       <r>   -2.1389    1.0000 </r>
       <r>   -2.1062    1.0000 </r>
       <r>   -2.0428    1.0000 </r>
       <r>   -1.9892    1.0000 </r>
       <r>   -1.8782    1.0000 </r>
       <r>   -1.7193    1.0000 </r>
       <r>    0.1111    0.0000 </r>
       <r>    0.2163    0.0000 </r>
       <r>    0.3063    0.0000 </r>
       <r>    0.3909    0.0000 </r>
       <r>    0.4322    0.0000 </r>
       <r>    0.4822    0.0000 </r>
       <r>    0.5395    0.0000 </r>
       <r>    0.5939    0.0000 </r>
       <r>    0.7211    0.0000 </r>
       <r>    0.7393    0.0000 </r>
       <r>    0.7967    0.0000 </r>
       <r>    0.8361    0.0000 </r>
       <r>    0.9020    0.0000 </r>
       <r>    0.9677    0.0000 </r>
       <r>    0.9917    0.0000 </r>
       <r>    1.0555    0.0000 </r>
       <r>    1.1508    0.0000 </r>
       <r>    1.1586    0.0000 </r>
       <r>    1.2078    0.0000 </r>
       <r>    1.2460    0.0000 </r>
       <r>    1.3853    0.0000 </r>
       <r>    1.4419    0.0000 </r>
       <r>    1.4948    0.0000 </r>
      </set>
      <set comment="kpoint 8">
       <r>  -62.4907    1.0000 </r>
       <r>  -62.4745    1.0000 </r>
       <r>  -62.4708    1.0000 </r>
       <r>  -62.4570    1.0000 </r>
       <r>  -62.4511    1.0000 </r>
       <r>  -62.4471    1.0000 </r>
       <r>  -62.4446    1.0000 </r>
       <r>  -62.4253    1.0000 </r>
       <r>  -62.4189    1.0000 </r>
       <r>  -36.8117    1.0000 </r>
       <r>  -36.7931    1.0000 </r>
       <r>  -36.7719    1.0000 </r>
       <r>  -36.7404    1.0000 </r>
       <r>  -36.7232    1.0000 </r>
       <r>  -36.6902    1.0000 </r>
       <r>  -36.6325    1.0000 </r>
       <r>  -36.6223    1.0000 </r>
       <r>  -36.6141    1.0000 </r>
       <r>  -36.6090    1.0000 </r>
       <r>  -36.6021    1.0000 </r>
       <r>  -36.5956    1.0000 </r>
       <r>  -36.5850    1.0000 </r>
       <r>  -36.5769    1.0000 </r>
       <r>  -36.5704    1.0000 </r>
       <r>  -36.5624    1.0000 </r>
       <r>  -36.5502    1.0000 </r>
       <r>  -36.5484    1.0000 </r>
       <r>  -36.5390    1.0000 </r>
       <r>  -36.5323    1.0000 </r>
       <r>  -36.5266    1.0000 </r>
       <r>  -36.5011    1.0000 </r>
       <r>  -36.4925    1.0000 </r>
       <r>  -36.4701    1.0000 </r>
       <r>  -36.4499    1.0000 </r>
       <r>  -36.4089    1.0000 </r>
       <r>  -36.4034    1.0000 </r>
       <r>  -15.4600    1.0000 </r>
       <r>  -15.2111    1.0000 </r>
       <r>  -14.9735    1.0000 </r>
       <r>  -14.4115    1.0000 </r>
       <r>  -14.3300    1.0000 </r>
       <r>  -14.2379    1.0000 </r>
       <r>  -14.1484    1.0000 </r>
       <r>  -14.1126    1.0000 </r>
       <r>  -13.9788    1.0000 </r>
       <r>  -13.9238    1.0000 </r>
       <r>  -13.8851    1.0000 </r>
       <r>  -13.8460    1.0000 </r>
       <r>  -13.7873    1.0000 </r>
       <r>  -13.6975    1.0000 </r>
       <r>  -13.6569    1.0000 </r>
       <r>  -13.5912    1.0000 </r>
       <r>  -13.5331    1.0000 </r>
       <r>  -13.4512    1.0000 </r>
       <r>   -7.3720    1.0000 </r>
       <r>   -7.2206    1.0000 </r>
       <r>   -7.0628    1.0000 </r>
       <r>   -6.9486    1.0000 </r>
       <r>   -6.8616    1.0000 </r>
       <r>   -6.8288    1.0000 </r>
       <r>   -6.7865    1.0000 </r>
       <r>   -6.7090    1.0000 </r>
       <r>   -6.6305    1.0000 </r>
       <r>   -6.5958    1.0000 </r>
       <r>   -6.5225    1.0000 </r>
       <r>   -6.4741    1.0000 </r>
       <r>   -6.4082    1.0000 </r>
       <r>   -6.2333    1.0000 </r>
       <r>   -5.8283    1.0000 </r>
       <r>   -5.6907    1.0000 </r>
       <r>   -5.6446    1.0000 </r>
       <r>   -5.5940    1.0000 </r>
       <r>   -5.5014    1.0000 </r>
       <r>   -5.4371    1.0000 </r>
       <r>   -5.3622    1.0000 </r>
       <r>   -5.2863    1.0000 </r>
       <r>   -5.2449    1.0000 </r>
       <r>   -5.1389    1.0000 </r>
       <r>   -5.0870    1.0000 </r>
       <r>   -4.9951    1.0000 </r>
       <r>   -4.9546    1.0000 </r>
       <r>   -4.8840    1.0000 </r>
       <r>   -4.8047    1.0000 </r>
       <r>   -4.7484    1.0000 </r>
       <r>   -4.7032    1.0000 </r>
       <r>   -4.6008    1.0000 </r>
       <r>   -4.4468    1.0000 </r>
       <r>   -4.3967    1.0000 </r>
       <r>   -4.2858    1.0000 </r>
       <r>   -4.1613    1.0000 </r>
       <r>   -4.0466    1.0000 </r>
       <r>   -3.9547    1.0000 </r>
       <r>   -3.8279    1.0000 </r>
       <r>   -3.7558    1.0000 </r>
       <r>   -3.6988    1.0000 </r>
       <r>   -3.5985    1.0000 </r>
       <r>   -3.5132    1.0000 </r>
       <r>   -3.4739    1.0000 </r>
       <r>   -3.4324    1.0000 </r>
       <r>   -3.3776    1.0000 </r>
       <r>   -3.2878    1.0000 </r>
       <r>   -3.1787    1.0000 </r>
       <r>   -3.0405    1.0000 </r>
       <r>   -2.8903    1.0000 </r>
       <r>   -2.8489    1.0000 </r>
       <r>   -2.6959    1.0000 </r>
       <r>   -2.6093    1.0000 </r>
       <r>   -2.5363    1.0000 </r>
       <r>   -2.4237    1.0000 </r>
       <r>   -2.2813    1.0000 </r>
       <r>   -2.2560    1.0000 </r>
       <r>   -2.1786    1.0000 </r>
       <r>   -2.1100    1.0000 </r>
       <r>   -2.0273    1.0000 </r>
       <r>   -1.9450    1.0000 </r>
       <r>   -1.9067    1.0000 </r>
       <r>   -1.7257    1.0000 </r>
       <r>    0.1438    0.0000 </r>
       <r>    0.2177    0.0000 </r>
       <r>    0.2842    0.0000 </r>
       <r>    0.3784    0.0000 </r>
       <r>    0.4482    0.0000 </r>
       <r>    0.4950    0.0000 </r>
       <r>    0.5275    0.0000 </r>
       <r>    0.6155    0.0000 </r>
       <r>    0.6941    0.0000 </r>
       <r>    0.7523    0.0000 </r>
       <r>    0.7750    0.0000 </r>
       <r>    0.8162    0.0000 </r>
       <r>    0.8960    0.0000 </r>
       <r>    0.9496    0.0000 </r>
       <r>    1.0361    0.0000 </r>
       <r>    1.1038    0.0000 </r>
       <r>    1.1301    0.0000 </r>
       <r>    1.1668    0.0000 </r>
       <r>    1.1977    0.0000 </r>
       <r>    1.2967    0.0000 </r>
       <r>    1.3281    0.0000 </r>
       <r>    1.4265    0.0000 </r>
       <r>    1.5436    0.0000 </r>
      </set>
      <set comment="kpoint 9">
       <r>  -62.4916    1.0000 </r>
       <r>  -62.4747    1.0000 </r>
       <r>  -62.4690    1.0000 </r>
       <r>  -62.4556    1.0000 </r>
       <r>  -62.4520    1.0000 </r>
       <r>  -62.4481    1.0000 </r>
       <r>  -62.4448    1.0000 </r>
       <r>  -62.4253    1.0000 </r>
       <r>  -62.4188    1.0000 </r>
       <r>  -36.7983    1.0000 </r>
       <r>  -36.7835    1.0000 </r>
       <r>  -36.7599    1.0000 </r>
       <r>  -36.7363    1.0000 </r>
       <r>  -36.7112    1.0000 </r>
       <r>  -36.7006    1.0000 </r>
       <r>  -36.6403    1.0000 </r>
       <r>  -36.6382    1.0000 </r>
       <r>  -36.6307    1.0000 </r>
       <r>  -36.6276    1.0000 </r>
       <r>  -36.6141    1.0000 </r>
       <r>  -36.6033    1.0000 </r>
       <r>  -36.5992    1.0000 </r>
       <r>  -36.5849    1.0000 </r>
       <r>  -36.5735    1.0000 </r>
[...]
       <r>   -5.3500    1.0000 </r>
       <r>   -5.2966    1.0000 </r>
       <r>   -5.1638    1.0000 </r>
       <r>   -5.0926    1.0000 </r>
       <r>   -5.0043    1.0000 </r>
       <r>   -4.9507    1.0000 </r>
       <r>   -4.8498    1.0000 </r>
       <r>   -4.8396    1.0000 </r>
       <r>   -4.7521    1.0000 </r>
       <r>   -4.6305    1.0000 </r>
       <r>   -4.6055    1.0000 </r>
       <r>   -4.4780    1.0000 </r>
       <r>   -4.4110    1.0000 </r>
       <r>   -4.2537    1.0000 </r>
       <r>   -4.1172    1.0000 </r>
       <r>   -4.0121    1.0000 </r>
       <r>   -3.9229    1.0000 </r>
       <r>   -3.8868    1.0000 </r>
       <r>   -3.7997    1.0000 </r>
       <r>   -3.6943    1.0000 </r>
       <r>   -3.6575    1.0000 </r>
       <r>   -3.4994    1.0000 </r>
       <r>   -3.4943    1.0000 </r>
       <r>   -3.4021    1.0000 </r>
       <r>   -3.3122    1.0000 </r>
       <r>   -3.2874    1.0000 </r>
       <r>   -3.2498    1.0000 </r>
       <r>   -3.2388    1.0000 </r>
       <r>   -2.7665    1.0000 </r>
       <r>   -2.7277    1.0000 </r>
       <r>   -2.6395    1.0000 </r>
       <r>   -2.6014    1.0000 </r>
       <r>   -2.5624    1.0000 </r>
       <r>   -2.4426    1.0000 </r>
       <r>   -2.3429    1.0000 </r>
       <r>   -2.2582    1.0000 </r>
       <r>   -2.1975    1.0000 </r>
       <r>   -2.0967    1.0000 </r>
       <r>   -2.0513    1.0000 </r>
       <r>   -1.9401    1.0000 </r>
       <r>   -1.8381    1.0000 </r>
       <r>   -1.8150    1.0000 </r>
       <r>    0.1033    0.0000 </r>
       <r>    0.2280    0.0000 </r>
       <r>    0.3156    0.0000 </r>
       <r>    0.3381    0.0000 </r>
       <r>    0.4504    0.0000 </r>
       <r>    0.5103    0.0000 </r>
       <r>    0.5446    0.0000 </r>
       <r>    0.6281    0.0000 </r>
       <r>    0.6975    0.0000 </r>
       <r>    0.7606    0.0000 </r>
       <r>    0.8492    0.0000 </r>
       <r>    0.8889    0.0000 </r>
       <r>    0.9201    0.0000 </r>
       <r>    0.9618    0.0000 </r>
       <r>    1.0074    0.0000 </r>
       <r>    1.0956    0.0000 </r>
       <r>    1.1354    0.0000 </r>
       <r>    1.1646    0.0000 </r>
       <r>    1.2047    0.0000 </r>
       <r>    1.2578    0.0000 </r>
       <r>    1.3218    0.0000 </r>
       <r>    1.3482    0.0000 </r>
       <r>    1.5654    0.0000 </r>
      </set>
     </set>
    </set>
   </array>
  </eigenvalues>
  <separator name="orbital magnetization" >
   <v name="MAGDIPOLOUT">      0.00000000      0.00000000      0.00000000</v>
  </separator>
  <dos>
   <i name="efermi">     -1.14730600 </i>
   <total>
    <array>
     <dimension dim="1">gridpoints</dimension>
     <dimension dim="2">spin</dimension>
     <field>energy</field>
     <field>total</field>
     <field>integrated</field>
     <set>
      <set comment="spin 1">
       <r>   -65.7043     0.0000     0.0000 </r>
       <r>   -65.4688     0.0000     0.0000 </r>
       <r>   -65.2333     0.0000     0.0000 </r>
       <r>   -64.9978     0.0000     0.0000 </r>
       <r>   -64.7623     0.0000     0.0000 </r>
       <r>   -64.5268     0.0000     0.0000 </r>
       <r>   -64.2913     0.0000     0.0000 </r>
       <r>   -64.0558     0.0000     0.0000 </r>
       <r>   -63.8203     0.0000     0.0000 </r>
       <r>   -63.5848     0.0000     0.0000 </r>
       <r>   -63.3493     0.0000     0.0000 </r>
       <r>   -63.1138     0.0000     0.0000 </r>
       <r>   -62.8783     0.0000     0.0000 </r>
       <r>   -62.6428     0.0001     0.0000 </r>
       <r>   -62.4073    66.1335    15.5746 </r>
       <r>   -62.1718    10.2988    18.0000 </r>
       <r>   -61.9363     0.0000    18.0000 </r>
       <r>   -61.7008     0.0000    18.0000 </r>
       <r>   -61.4653     0.0000    18.0000 </r>
       <r>   -61.2298     0.0000    18.0000 </r>
       <r>   -60.9943     0.0000    18.0000 </r>
       <r>   -60.7588     0.0000    18.0000 </r>
       <r>   -60.5233     0.0000    18.0000 </r>
       <r>   -60.2878     0.0000    18.0000 </r>
       <r>   -60.0523     0.0000    18.0000 </r>
       <r>   -59.8168     0.0000    18.0000 </r>
       <r>   -59.5813     0.0000    18.0000 </r>
       <r>   -59.3458     0.0000    18.0000 </r>
       <r>   -59.1103     0.0000    18.0000 </r>
       <r>   -58.8748     0.0000    18.0000 </r>
       <r>   -58.6393     0.0000    18.0000 </r>
       <r>   -58.4038     0.0000    18.0000 </r>
       <r>   -58.1683     0.0000    18.0000 </r>
       <r>   -57.9327     0.0000    18.0000 </r>
       <r>   -57.6972     0.0000    18.0000 </r>
       <r>   -57.4617     0.0000    18.0000 </r>
       <r>   -57.2262     0.0000    18.0000 </r>
       <r>   -56.9907     0.0000    18.0000 </r>
       <r>   -56.7552     0.0000    18.0000 </r>
       <r>   -56.5197     0.0000    18.0000 </r>
       <r>   -56.2842     0.0000    18.0000 </r>
       <r>   -56.0487     0.0000    18.0000 </r>
       <r>   -55.8132     0.0000    18.0000 </r>
       <r>   -55.5777     0.0000    18.0000 </r>
       <r>   -55.3422     0.0000    18.0000 </r>
       <r>   -55.1067     0.0000    18.0000 </r>
       <r>   -54.8712     0.0000    18.0000 </r>
       <r>   -54.6357     0.0000    18.0000 </r>
       <r>   -54.4002     0.0000    18.0000 </r>
       <r>   -54.1647     0.0000    18.0000 </r>
       <r>   -53.9292     0.0000    18.0000 </r>
       <r>   -53.6937     0.0000    18.0000 </r>
       <r>   -53.4582     0.0000    18.0000 </r>
       <r>   -53.2227     0.0000    18.0000 </r>
       <r>   -52.9872     0.0000    18.0000 </r>
       <r>   -52.7517     0.0000    18.0000 </r>
       <r>   -52.5162     0.0000    18.0000 </r>
       <r>   -52.2807     0.0000    18.0000 </r>
       <r>   -52.0452     0.0000    18.0000 </r>
       <r>   -51.8097     0.0000    18.0000 </r>
       <r>   -51.5742     0.0000    18.0000 </r>
       <r>   -51.3387     0.0000    18.0000 </r>
       <r>   -51.1032     0.0000    18.0000 </r>
       <r>   -50.8677     0.0000    18.0000 </r>
       <r>   -50.6322     0.0000    18.0000 </r>
       <r>   -50.3967     0.0000    18.0000 </r>
       <r>   -50.1612     0.0000    18.0000 </r>
       <r>   -49.9257     0.0000    18.0000 </r>
       <r>   -49.6902     0.0000    18.0000 </r>
       <r>   -49.4547     0.0000    18.0000 </r>
       <r>   -49.2192     0.0000    18.0000 </r>
       <r>   -48.9837     0.0000    18.0000 </r>
       <r>   -48.7482     0.0000    18.0000 </r>
       <r>   -48.5127     0.0000    18.0000 </r>
       <r>   -48.2772     0.0000    18.0000 </r>
       <r>   -48.0417     0.0000    18.0000 </r>
       <r>   -47.8062     0.0000    18.0000 </r>
       <r>   -47.5707     0.0000    18.0000 </r>
       <r>   -47.3352     0.0000    18.0000 </r>
       <r>   -47.0997     0.0000    18.0000 </r>
       <r>   -46.8642     0.0000    18.0000 </r>
       <r>   -46.6286     0.0000    18.0000 </r>
       <r>   -46.3931     0.0000    18.0000 </r>
       <r>   -46.1576     0.0000    18.0000 </r>
       <r>   -45.9221     0.0000    18.0000 </r>
       <r>   -45.6866     0.0000    18.0000 </r>
       <r>   -45.4511     0.0000    18.0000 </r>
       <r>   -45.2156     0.0000    18.0000 </r>
       <r>   -44.9801     0.0000    18.0000 </r>
       <r>   -44.7446     0.0000    18.0000 </r>
       <r>   -44.5091     0.0000    18.0000 </r>
       <r>   -44.2736     0.0000    18.0000 </r>
       <r>   -44.0381     0.0000    18.0000 </r>
       <r>   -43.8026     0.0000    18.0000 </r>
       <r>   -43.5671     0.0000    18.0000 </r>
       <r>   -43.3316     0.0000    18.0000 </r>
       <r>   -43.0961     0.0000    18.0000 </r>
       <r>   -42.8606     0.0000    18.0000 </r>
       <r>   -42.6251     0.0000    18.0000 </r>
       <r>   -42.3896     0.0000    18.0000 </r>
       <r>   -42.1541     0.0000    18.0000 </r>
       <r>   -41.9186     0.0000    18.0000 </r>
       <r>   -41.6831     0.0000    18.0000 </r>
       <r>   -41.4476     0.0000    18.0000 </r>
       <r>   -41.2121     0.0000    18.0000 </r>
       <r>   -40.9766     0.0000    18.0000 </r>
       <r>   -40.7411     0.0000    18.0000 </r>
       <r>   -40.5056     0.0000    18.0000 </r>
       <r>   -40.2701     0.0000    18.0000 </r>
       <r>   -40.0346     0.0000    18.0000 </r>
       <r>   -39.7991     0.0000    18.0000 </r>
       <r>   -39.5636     0.0000    18.0000 </r>
       <r>   -39.3281     0.0000    18.0000 </r>
       <r>   -39.0926     0.0000    18.0000 </r>
       <r>   -38.8571     0.0000    18.0000 </r>
       <r>   -38.6216     0.0000    18.0000 </r>
       <r>   -38.3861     0.0000    18.0000 </r>
       <r>   -38.1506     0.0000    18.0000 </r>
       <r>   -37.9151     0.0000    18.0000 </r>
       <r>   -37.6796     0.0000    18.0000 </r>
       <r>   -37.4441     0.0000    18.0000 </r>
       <r>   -37.2086     0.0000    18.0000 </r>
       <r>   -36.9731     0.0000    18.0000 </r>
       <r>   -36.7376    30.4216    25.1643 </r>
       <r>   -36.5021   148.0472    60.0298 </r>
       <r>   -36.2666    50.8272    71.9997 </r>
       <r>   -36.0311     0.0013    72.0000 </r>
       <r>   -35.7956     0.0000    72.0000 </r>
       <r>   -35.5601     0.0000    72.0000 </r>
       <r>   -35.3245     0.0000    72.0000 </r>
       <r>   -35.0890     0.0000    72.0000 </r>
       <r>   -34.8535     0.0000    72.0000 </r>
       <r>   -34.6180     0.0000    72.0000 </r>
       <r>   -34.3825     0.0000    72.0000 </r>
       <r>   -34.1470     0.0000    72.0000 </r>
       <r>   -33.9115     0.0000    72.0000 </r>
       <r>   -33.6760     0.0000    72.0000 </r>
       <r>   -33.4405     0.0000    72.0000 </r>
       <r>   -33.2050     0.0000    72.0000 </r>
       <r>   -32.9695     0.0000    72.0000 </r>
       <r>   -32.7340     0.0000    72.0000 </r>
       <r>   -32.4985     0.0000    72.0000 </r>
       <r>   -32.2630     0.0000    72.0000 </r>
       <r>   -32.0275     0.0000    72.0000 </r>
       <r>   -31.7920     0.0000    72.0000 </r>
       <r>   -31.5565     0.0000    72.0000 </r>
       <r>   -31.3210     0.0000    72.0000 </r>
       <r>   -31.0855     0.0000    72.0000 </r>
       <r>   -30.8500     0.0000    72.0000 </r>
       <r>   -30.6145     0.0000    72.0000 </r>
       <r>   -30.3790     0.0000    72.0000 </r>
       <r>   -30.1435     0.0000    72.0000 </r>
       <r>   -29.9080     0.0000    72.0000 </r>
       <r>   -29.6725     0.0000    72.0000 </r>
       <r>   -29.4370     0.0000    72.0000 </r>
       <r>   -29.2015     0.0000    72.0000 </r>
       <r>   -28.9660     0.0000    72.0000 </r>
       <r>   -28.7305     0.0000    72.0000 </r>
       <r>   -28.4950     0.0000    72.0000 </r>
       <r>   -28.2595     0.0000    72.0000 </r>
       <r>   -28.0240     0.0000    72.0000 </r>
       <r>   -27.7885     0.0000    72.0000 </r>
       <r>   -27.5530     0.0000    72.0000 </r>
       <r>   -27.3175     0.0000    72.0000 </r>
       <r>   -27.0820     0.0000    72.0000 </r>
       <r>   -26.8465     0.0000    72.0000 </r>
       <r>   -26.6110     0.0000    72.0000 </r>
       <r>   -26.3755     0.0000    72.0000 </r>
       <r>   -26.1400     0.0000    72.0000 </r>
       <r>   -25.9045     0.0000    72.0000 </r>
       <r>   -25.6690     0.0000    72.0000 </r>
       <r>   -25.4335     0.0000    72.0000 </r>
       <r>   -25.1980     0.0000    72.0000 </r>
       <r>   -24.9625     0.0000    72.0000 </r>
       <r>   -24.7270     0.0000    72.0000 </r>
       <r>   -24.4915     0.0000    72.0000 </r>
       <r>   -24.2559     0.0000    72.0000 </r>
       <r>   -24.0204     0.0000    72.0000 </r>
       <r>   -23.7849     0.0000    72.0000 </r>
       <r>   -23.5494     0.0000    72.0000 </r>
       <r>   -23.3139     0.0000    72.0000 </r>
       <r>   -23.0784     0.0000    72.0000 </r>
       <r>   -22.8429     0.0000    72.0000 </r>
       <r>   -22.6074     0.0000    72.0000 </r>
       <r>   -22.3719     0.0000    72.0000 </r>
       <r>   -22.1364     0.0000    72.0000 </r>
       <r>   -21.9009     0.0000    72.0000 </r>
       <r>   -21.6654     0.0000    72.0000 </r>
       <r>   -21.4299     0.0000    72.0000 </r>
       <r>   -21.1944     0.0000    72.0000 </r>
       <r>   -20.9589     0.0000    72.0000 </r>
       <r>   -20.7234     0.0000    72.0000 </r>
       <r>   -20.4879     0.0000    72.0000 </r>
       <r>   -20.2524     0.0000    72.0000 </r>
       <r>   -20.0169     0.0000    72.0000 </r>
       <r>   -19.7814     0.0000    72.0000 </r>
       <r>   -19.5459     0.0000    72.0000 </r>
       <r>   -19.3104     0.0000    72.0000 </r>
       <r>   -19.0749     0.0000    72.0000 </r>
       <r>   -18.8394     0.0000    72.0000 </r>
       <r>   -18.6039     0.0000    72.0000 </r>
       <r>   -18.3684     0.0000    72.0000 </r>
       <r>   -18.1329     0.0000    72.0000 </r>
       <r>   -17.8974     0.0000    72.0000 </r>
       <r>   -17.6619     0.0000    72.0000 </r>
       <r>   -17.4264     0.0000    72.0000 </r>
       <r>   -17.1909     0.0000    72.0000 </r>
       <r>   -16.9554     0.0000    72.0000 </r>
       <r>   -16.7199     0.0000    72.0000 </r>
       <r>   -16.4844     0.0000    72.0000 </r>
       <r>   -16.2489     0.0000    72.0000 </r>
       <r>   -16.0134     0.0000    72.0000 </r>
       <r>   -15.7779     0.1291    72.0304 </r>
       <r>   -15.5424     4.2106    73.0220 </r>
       <r>   -15.3069     4.5194    74.0863 </r>
       <r>   -15.0714     5.2043    75.3120 </r>
       <r>   -14.8359     6.0894    76.7460 </r>
       <r>   -14.6004     6.5326    78.2845 </r>
       <r>   -14.3649    11.3180    80.9499 </r>
       <r>   -14.1294    21.4297    85.9966 </r>
       <r>   -13.8939    28.9631    92.8175 </r>
       <r>   -13.6584    34.3059   100.8966 </r>
       <r>   -13.4229    25.7238   106.9546 </r>
       <r>   -13.1874     4.4389   108.0000 </r>
       <r>   -12.9518     0.0000   108.0000 </r>
       <r>   -12.7163     0.0000   108.0000 </r>
       <r>   -12.4808     0.0000   108.0000 </r>
       <r>   -12.2453     0.0000   108.0000 </r>
       <r>   -12.0098     0.0000   108.0000 </r>
       <r>   -11.7743     0.0000   108.0000 </r>
       <r>   -11.5388     0.0000   108.0000 </r>
       <r>   -11.3033     0.0000   108.0000 </r>
       <r>   -11.0678     0.0000   108.0000 </r>
       <r>   -10.8323     0.0000   108.0000 </r>
       <r>   -10.5968     0.0000   108.0000 </r>
       <r>   -10.3613     0.0000   108.0000 </r>
       <r>   -10.1258     0.0000   108.0000 </r>
       <r>    -9.8903     0.0000   108.0000 </r>
       <r>    -9.6548     0.0000   108.0000 </r>
       <r>    -9.4193     0.0000   108.0000 </r>
       <r>    -9.1838     0.0000   108.0000 </r>
       <r>    -8.9483     0.0000   108.0000 </r>
       <r>    -8.7128     0.0000   108.0000 </r>
       <r>    -8.4773     0.0000   108.0000 </r>
       <r>    -8.2418     0.0000   108.0000 </r>
       <r>    -8.0063     0.0000   108.0000 </r>
       <r>    -7.7708     0.0000   108.0000 </r>
       <r>    -7.5353     0.0018   108.0004 </r>
       <r>    -7.2998     5.8332   109.3742 </r>
       <r>    -7.0643    16.6221   113.2887 </r>
       <r>    -6.8288    26.4645   119.5212 </r>
       <r>    -6.5933    30.4276   126.6869 </r>
       <r>    -6.3578    22.1104   131.8940 </r>
       <r>    -6.1223    12.6676   134.8772 </r>
       <r>    -5.8868     5.5645   136.1877 </r>
       <r>    -5.6513    17.4759   140.3033 </r>
       <r>    -5.4158    39.4327   149.5898 </r>
       <r>    -5.1803    26.4926   155.8288 </r>
       <r>    -4.9448    23.3678   161.3320 </r>
       <r>    -4.7093    25.6207   167.3657 </r>
       <r>    -4.4738    24.1926   173.0632 </r>
       <r>    -4.2383    20.8260   177.9677 </r>
       <r>    -4.0028    17.8981   182.1828 </r>
       <r>    -3.7673    13.7861   185.4294 </r>
       <r>    -3.5318    24.0518   191.0937 </r>
       <r>    -3.2963    33.1436   198.8991 </r>
       <r>    -3.0608    25.4745   204.8984 </r>
       <r>    -2.8253    21.0457   209.8547 </r>
       <r>    -2.5898    20.7884   214.7504 </r>
       <r>    -2.3543    23.2313   220.2214 </r>
       <r>    -2.1188    23.9510   225.8619 </r>
       <r>    -1.8833    17.6991   230.0301 </r>
       <r>    -1.6477    13.2054   233.1400 </r>
       <r>    -1.4122     3.6496   233.9995 </r>
       <r>    -1.1767     0.0022   234.0000 </r>
       <r>    -0.9412     0.0000   234.0000 </r>
       <r>    -0.7057     0.0000   234.0000 </r>
       <r>    -0.4702     0.0000   234.0000 </r>
       <r>    -0.2347     0.0002   234.0000 </r>
       <r>     0.0008     1.6929   234.3987 </r>
       <r>     0.2363    15.4145   238.0289 </r>
       <r>     0.4718    28.9712   244.8516 </r>
       <r>     0.7073    30.3069   251.9890 </r>
       <r>     0.9428    33.2439   259.8180 </r>
       <r>     1.1783    36.6193   268.4419 </r>
       <r>     1.4138    29.0760   275.2894 </r>
       <r>     1.6493    18.9039   279.7413 </r>
       <r>     1.8848     1.0986   280.0000 </r>
       <r>     2.1203     0.0000   280.0000 </r>
       <r>     2.3558     0.0000   280.0000 </r>
       <r>     2.5913     0.0000   280.0000 </r>
       <r>     2.8268     0.0000   280.0000 </r>
       <r>     3.0623     0.0000   280.0000 </r>
       <r>     3.2978     0.0000   280.0000 </r>
       <r>     3.5333     0.0000   280.0000 </r>
       <r>     3.7688     0.0000   280.0000 </r>
       <r>     4.0043     0.0000   280.0000 </r>
       <r>     4.2398     0.0000   280.0000 </r>
       <r>     4.4753     0.0000   280.0000 </r>
       <r>     4.7108     0.0000   280.0000 </r>
       <r>     4.9463     0.0000   280.0000 </r>
      </set>
     </set>
    </array>
   </total>
  </dos>
 </calculation>
 <structure name="finalpos" >
  <crystal>
   <varray name="basis" >
    <v>       9.55219900       0.00000000       0.00000000 </v>
    <v>      -4.77610000       8.27244700       0.00000000 </v>
    <v>       0.00000000       0.00000000      18.12711300 </v>
   </varray>
   <i name="volume">   1432.40555618 </i>
   <varray name="rec_basis" >
    <v>       0.10468794       0.06044161      -0.00000000 </v>
    <v>       0.00000000       0.12088322       0.00000000 </v>
    <v>       0.00000000      -0.00000000       0.05516598 </v>
   </varray>
  </crystal>
  <varray name="positions" >
   <v>       0.01034654       0.99481926       0.50191755 </v>
   <v>       0.33553741       0.34099684       0.49937604 </v>
   <v>       0.66195856       0.99768623       0.50155918 </v>
   <v>       0.34555651       0.01737961       0.49935129 </v>
   <v>       0.32534479       0.65258127       0.50507076 </v>
   <v>       0.66282882       0.34391373       0.49418209 </v>
   <v>       0.97361468       0.30834223       0.49734905 </v>
   <v>       0.67484668       0.68027857       0.49803560 </v>
   <v>       0.01252940       0.66451302       0.50400131 </v>
   <v>       0.55920722       0.11920467       0.58337846 </v>
   <v>       0.24450696       0.11772460       0.58325365 </v>
   <v>       0.22549015       0.12628614       0.41354046 </v>
   <v>       0.19459662       0.42339604       0.58495779 </v>
   <v>       0.20029198       0.42964867       0.41399709 </v>
   <v>       0.23740671       0.78978523       0.58714697 </v>
   <v>       0.24219553       0.78523334       0.41398170 </v>
   <v>       0.55437598       0.12527567       0.41188982 </v>
   <v>       0.55942704       0.77812808       0.41520831 </v>
   <v>       0.55446288       0.46264021       0.58806974 </v>
   <v>       0.54595463       0.76963188       0.58838367 </v>
   <v>       0.55340375       0.45895201       0.41432233 </v>
   <v>       0.89618969       0.09027302       0.58873050 </v>
   <v>       0.87242559       0.09416440       0.40865482 </v>
   <v>       0.86924366       0.42483872       0.58076293 </v>
   <v>       0.87866981       0.44112022       0.41536947 </v>
   <v>       0.89417946       0.78127254       0.58625961 </v>
   <v>       0.91030282       0.78089639       0.41957083 </v>
  </varray>
 </structure>
</modeling>
