<?xml version="1.0" encoding="ISO-8859-1"?>
<modeling>
 <generator>
  <i name="program" type="string">vasp </i>
  <i name="version" type="string">5.4.4.18Apr17-6-g9f103f2a35  </i>
  <i name="subversion" type="string">(build Oct  7 2019 15:10:45) complex            parallel </i>
  <i name="platform" type="string">LinuxGNU </i>
  <i name="date" type="string">2021 11 09 </i>
  <i name="time" type="string">19:50:15 </i>
 </generator>
 <incar>
  <i type="string" name="SYSTEM">mos2</i>
  <i type="int" name="ISTART">     0</i>
  <i type="string" name="PREC">accurate</i>
  <i type="string" name="ALGO"> Normal</i>
  <i type="int" name="NSIM">     4</i>
  <i type="int" name="NELM">  1000</i>
  <i type="int" name="NELMIN">     2</i>
  <i type="int" name="IBRION">    -1</i>
  <i name="EDIFF">      0.00000100</i>
  <i type="int" name="NSW">     0</i>
  <i name="ENCUT">    600.00000000</i>
  <i type="string" name="LREAL"> Auto</i>
  <i type="int" name="ISMEAR">     0</i>
  <i name="SIGMA">      0.05000000</i>
  <i type="logical" name="LWAVE"> F  </i>
  <i type="logical" name="LCHARG"> T  </i>
  <v type="int" name="KPOINT_BSE">    -1     0     0     0</v>
  <i type="int" name="NELM">  1000</i>
 </incar>
 <structure name="primitive_cell" >
  <crystal>
   <varray name="basis" >
    <v>       9.56424100       0.00000000       0.00000000 </v>
    <v>      -4.78212000       8.28287600       0.00000000 </v>
    <v>      -0.00000000       0.00000000      18.15827300 </v>
   </varray>
   <i name="volume">   1438.48789588 </i>
   <varray name="rec_basis" >
    <v>       0.10455613       0.06036550       0.00000000 </v>
    <v>       0.00000000       0.12073101      -0.00000000 </v>
    <v>       0.00000000      -0.00000000       0.05507132 </v>
   </varray>
  </crystal>
  <varray name="positions" >
   <v>       0.03649080       0.01801991       0.49529974 </v>
   <v>       0.22525435       0.11499675      -0.41435569 </v>
   <v>       0.10610097       0.22680634       0.40833655 </v>
   <v>       0.11375911      -0.11450322       0.40791687 </v>
   <v>      -0.22530451      -0.11206017       0.43112191 </v>
   <v>      -0.11454712       0.09354919      -0.41643258 </v>
   <v>      -0.11224771      -0.21021774      -0.41339670 </v>
   <v>       0.30908334       0.34569140       0.49889663 </v>
   <v>      -0.01420906      -0.31206654       0.49853587 </v>
   <v>       0.32412205      -0.03202126       0.49727116 </v>
   <v>      -0.02169529       0.30151804       0.49936334 </v>
   <v>      -0.34104513       0.02076512      -0.49820903 </v>
   <v>       0.45858003       0.23805010       0.43623241 </v>
   <v>      -0.34963623      -0.36288227      -0.49822333 </v>
   <v>       0.20494983       0.44677893      -0.41367864 </v>
   <v>       0.21798665      -0.23366651      -0.41539510 </v>
   <v>      -0.22248580      -0.44276394       0.41198197 </v>
   <v>      -0.23584087       0.21206361       0.40670910 </v>
   <v>      -0.43938995      -0.22350143      -0.41320283 </v>
   <v>      -0.45364265       0.11708250      -0.41553672 </v>
   <v>      -0.45391680       0.43034807      -0.41410112 </v>
   <v>       0.44717777      -0.44138478       0.40939753 </v>
   <v>       0.10699413      -0.44498791       0.42729735 </v>
   <v>       0.45238459      -0.12137693       0.41311924 </v>
   <v>      -0.09047014       0.45755169      -0.41445596 </v>
   <v>       0.36188646      -0.32116040       0.49942027 </v>
   <v>      -0.30009778       0.34455430      -0.49955983 </v>
  </varray>
 </structure>
 <varray name="primitive_index" >
  <v type="int" >        1 </v>
  <v type="int" >       11 </v>
  <v type="int" >       12 </v>
  <v type="int" >       16 </v>
  <v type="int" >       27 </v>
  <v type="int" >       22 </v>
  <v type="int" >       26 </v>
  <v type="int" >        2 </v>
  <v type="int" >        9 </v>
  <v type="int" >        4 </v>
  <v type="int" >        7 </v>
  <v type="int" >        3 </v>
  <v type="int" >       17 </v>
  <v type="int" >        8 </v>
  <v type="int" >       13 </v>
  <v type="int" >       15 </v>
  <v type="int" >       25 </v>
  <v type="int" >       23 </v>
  <v type="int" >       20 </v>
  <v type="int" >       10 </v>
  <v type="int" >       19 </v>
  <v type="int" >       21 </v>
  <v type="int" >       14 </v>
  <v type="int" >       18 </v>
  <v type="int" >       24 </v>
  <v type="int" >        5 </v>
  <v type="int" >        6 </v>
 </varray>
 <kpoints>
  <generation param="Gamma">
   <v type="int" name="divisions">       6        6        1 </v>
   <v name="usershift">      0.00000000       0.00000000       0.00000000 </v>
   <v name="genvec1">      0.16666667       0.00000000       0.00000000 </v>
   <v name="genvec2">      0.00000000       0.16666667       0.00000000 </v>
   <v name="genvec3">      0.00000000       0.00000000       1.00000000 </v>
   <v name="shift">      0.00000000       0.00000000       0.00000000 </v>
  </generation>
  <varray name="kpointlist" >
   <v>       0.00000000       0.00000000       0.00000000 </v>
   <v>       0.16666667       0.00000000       0.00000000 </v>
   <v>       0.33333333       0.00000000       0.00000000 </v>
   <v>       0.50000000       0.00000000       0.00000000 </v>
   <v>       0.00000000       0.16666667       0.00000000 </v>
   <v>       0.16666667       0.16666667       0.00000000 </v>
   <v>       0.33333333       0.16666667       0.00000000 </v>
   <v>       0.50000000       0.16666667       0.00000000 </v>
   <v>      -0.33333333       0.16666667       0.00000000 </v>
   <v>      -0.16666667       0.16666667       0.00000000 </v>
   <v>       0.00000000       0.33333333       0.00000000 </v>
   <v>       0.16666667       0.33333333       0.00000000 </v>
   <v>       0.33333333       0.33333333       0.00000000 </v>
   <v>       0.50000000       0.33333333       0.00000000 </v>
   <v>      -0.33333333       0.33333333       0.00000000 </v>
   <v>      -0.16666667       0.33333333       0.00000000 </v>
   <v>       0.00000000       0.50000000       0.00000000 </v>
   <v>       0.16666667       0.50000000       0.00000000 </v>
   <v>       0.33333333       0.50000000       0.00000000 </v>
   <v>       0.50000000       0.50000000       0.00000000 </v>
  </varray>
  <varray name="weights" >
   <v>       0.02777778 </v>
   <v>       0.05555556 </v>
   <v>       0.05555556 </v>
   <v>       0.02777778 </v>
   <v>       0.05555556 </v>
   <v>       0.05555556 </v>
   <v>       0.05555556 </v>
   <v>       0.05555556 </v>
   <v>       0.05555556 </v>
   <v>       0.05555556 </v>
   <v>       0.05555556 </v>
   <v>       0.05555556 </v>
   <v>       0.05555556 </v>
   <v>       0.05555556 </v>
   <v>       0.05555556 </v>
   <v>       0.05555556 </v>
   <v>       0.02777778 </v>
   <v>       0.05555556 </v>
   <v>       0.05555556 </v>
   <v>       0.02777778 </v>
  </varray>
 </kpoints>
 <parameters>
  <separator name="general" >
   <i type="string" name="SYSTEM">mos2</i>
   <i type="logical" name="LCOMPAT"> F  </i>
  </separator>
  <separator name="electronic" >
   <i type="string" name="PREC">accura</i>
   <i name="ENMAX">    600.00000000</i>
   <i name="ENAUG">    446.01400000</i>
   <i name="EDIFF">      0.00000100</i>
   <i type="int" name="IALGO">    38</i>
   <i type="int" name="IWAVPR">    10</i>
   <i type="int" name="NBANDS">   140</i>
   <i name="NELECT">    234.00000000</i>
   <i type="int" name="TURBO">     0</i>
   <i type="int" name="IRESTART">     0</i>
   <i type="int" name="NREBOOT">     0</i>
   <i type="int" name="NMIN">     0</i>
   <i name="EREF">      0.00000000</i>
   <separator name="electronic smearing" >
    <i type="int" name="ISMEAR">     0</i>
    <i name="SIGMA">      0.05000000</i>
    <i name="KSPACING">      0.50000000</i>
    <i type="logical" name="KGAMMA"> T  </i>
   </separator>
   <separator name="electronic projectors" >
    <i type="logical" name="LREAL"> T  </i>
    <v name="ROPT">     -0.00025000     -0.00025000</v>
    <i type="int" name="LMAXPAW">  -100</i>
    <i type="int" name="LMAXMIX">     2</i>
    <i type="logical" name="NLSPLINE"> F  </i>
   </separator>
   <separator name="electronic startup" >
    <i type="int" name="ISTART">     0</i>
    <i type="int" name="ICHARG">     2</i>
    <i type="int" name="INIWAV">     1</i>
   </separator>
   <separator name="electronic spin" >
    <i type="int" name="ISPIN">     1</i>
    <i type="logical" name="LNONCOLLINEAR"> F  </i>
    <v name="MAGMOM">      1.00000000      1.00000000      1.00000000      1.00000000      1.00000000      1.00000000      1.00000000      1.00000000      1.00000000      1.00000000      1.00000000      1.00000000      1.00000000      1.00000000      1.00000000      1.00000000      1.00000000      1.00000000      1.00000000      1.00000000
      1.00000000      1.00000000      1.00000000      1.00000000      1.00000000      1.00000000      1.00000000</v>
    <i name="NUPDOWN">     -1.00000000</i>
    <i type="logical" name="LSORBIT"> F  </i>
    <v name="SAXIS">      0.00000000      0.00000000      1.00000000</v>
    <i type="logical" name="LSPIRAL"> F  </i>
    <v name="QSPIRAL">      0.00000000      0.00000000      0.00000000</v>
    <i type="logical" name="LZEROZ"> F  </i>
   </separator>
   <separator name="electronic exchange-correlation" >
    <i type="logical" name="LASPH"> F  </i>
    <i type="logical" name="LMETAGGA"> F  </i>
   </separator>
   <separator name="electronic convergence" >
    <i type="int" name="NELM">  1000</i>
    <i type="int" name="NELMDL">    -5</i>
    <i type="int" name="NELMIN">     2</i>
    <i name="ENINI">    600.00000000</i>
    <separator name="electronic convergence detail" >
     <i type="logical" name="LDIAG"> T  </i>
     <i type="logical" name="LSUBROT"> F  </i>
     <i name="WEIMIN">      0.00000000</i>
     <i name="EBREAK">      0.00000000</i>
     <i name="DEPER">      0.30000000</i>
     <i type="int" name="NRMM">     4</i>
     <i name="TIME">      0.40000000</i>
    </separator>
   </separator>
   <separator name="electronic mixer" >
    <i name="AMIX">      0.40000000</i>
    <i name="BMIX">      1.00000000</i>
    <i name="AMIN">      0.10000000</i>
    <i name="AMIX_MAG">      1.60000000</i>
    <i name="BMIX_MAG">      1.00000000</i>
    <separator name="electronic mixer details" >
     <i type="int" name="IMIX">     4</i>
     <i type="logical" name="MIXFIRST"> F  </i>
     <i type="int" name="MAXMIX">   -45</i>
     <i name="WC">    100.00000000</i>
     <i type="int" name="INIMIX">     1</i>
     <i type="int" name="MIXPRE">     1</i>
     <i type="int" name="MREMOVE">     5</i>
    </separator>
   </separator>
   <separator name="electronic dipolcorrection" >
    <i type="logical" name="LDIPOL"> F  </i>
    <i type="logical" name="LMONO"> F  </i>
    <i type="int" name="IDIPOL">     0</i>
    <i name="EPSILON">      1.00000000</i>
    <v name="DIPOL">   -100.00000000   -100.00000000   -100.00000000</v>
    <i name="EFIELD">      0.00000000</i>
   </separator>
  </separator>
  <separator name="grids" >
   <i type="int" name="NGX">    80</i>
   <i type="int" name="NGY">    80</i>
   <i type="int" name="NGZ">   150</i>
   <i type="int" name="NGXF">   160</i>
   <i type="int" name="NGYF">   160</i>
   <i type="int" name="NGZF">   300</i>
   <i type="logical" name="ADDGRID"> F  </i>
  </separator>
  <separator name="ionic" >
   <i type="int" name="NSW">     0</i>
   <i type="int" name="IBRION">    -1</i>
   <i type="int" name="MDALGO">     0</i>
   <i type="int" name="ISIF">     2</i>
   <i name="PSTRESS">      0.00000000</i>
   <i name="EDIFFG">      0.00001000</i>
   <i type="int" name="NFREE">     0</i>
   <i name="POTIM">      0.50000000</i>
   <i name="SMASS">     -3.00000000</i>
   <i name="SCALEE">      1.00000000</i>
  </separator>
  <separator name="ionic md" >
   <i name="TEBEG">      0.00010000</i>
   <i name="TEEND">      0.00010000</i>
   <i type="int" name="NBLOCK">     1</i>
   <i type="int" name="KBLOCK">     1</i>
   <i type="int" name="NPACO">   256</i>
   <i name="APACO">     16.00000000</i>
  </separator>
  <separator name="symmetry" >
   <i type="int" name="ISYM">     2</i>
   <i name="SYMPREC">      0.00001000</i>
  </separator>
  <separator name="dos" >
   <i type="int" name="LORBIT">     0</i>
   <v name="RWIGS">     -1.00000000     -1.00000000</v>
   <i type="int" name="NEDOS">   301</i>
   <i name="EMIN">     10.00000000</i>
   <i name="EMAX">    -10.00000000</i>
   <i name="EFERMI">      0.00000000</i>
  </separator>
  <separator name="writing" >
   <i type="int" name="NWRITE">     2</i>
   <i type="logical" name="LWAVE"> F  </i>
   <i type="logical" name="LDOWNSAMPLE"> F  </i>
   <i type="logical" name="LCHARG"> T  </i>
   <i type="logical" name="LPARD"> F  </i>
   <i type="logical" name="LVTOT"> F  </i>
   <i type="logical" name="LVHAR"> F  </i>
   <i type="logical" name="LELF"> F  </i>
   <i type="logical" name="LOPTICS"> F  </i>
   <v name="STM">      0.00000000      0.00000000      0.00000000      0.00000000      0.00000000      0.00000000      0.00000000</v>
  </separator>
  <separator name="performance" >
   <i type="int" name="NPAR">     4</i>
   <i type="int" name="NSIM">     4</i>
   <i type="int" name="NBLK">    -1</i>
   <i type="logical" name="LPLANE"> T  </i>
   <i type="logical" name="LSCALAPACK"> T  </i>
   <i type="logical" name="LSCAAWARE"> F  </i>
   <i type="logical" name="LSCALU"> F  </i>
   <i type="logical" name="LASYNC"> F  </i>
   <i type="logical" name="LORBITALREAL"> F  </i>
  </separator>
  <separator name="miscellaneous" >
   <i type="int" name="IDIOT">     3</i>
   <i type="int" name="ISPECIAL">     0</i>
   <i type="logical" name="LMUSIC"> F  </i>
   <v name="POMASS">     95.94000000     32.06600000</v>
   <v name="DARWINR">      0.00000000      0.00000000</v>
   <v name="DARWINV">      1.00000000      1.00000000</v>
   <i type="logical" name="LCORR"> T  </i>
  </separator>
  <i type="logical" name="GGA_COMPAT"> T  </i>
  <i type="logical" name="LBERRY"> F  </i>
  <i type="int" name="ICORELEVEL">     0</i>
  <i type="logical" name="LDAU"> F  </i>
  <i type="int" name="I_CONSTRAINED_M">     0</i>
  <separator name="electronic exchange-correlation" >
   <i type="string" name="GGA">--</i>
   <i type="int" name="VOSKOWN">     0</i>
   <i type="logical" name="LHFCALC"> F  </i>
   <i type="string" name="PRECFOCK"></i>
   <i type="logical" name="LSYMGRAD"> F  </i>
   <i type="logical" name="LHFONE"> F  </i>
   <i type="logical" name="LRHFCALC"> F  </i>
   <i type="logical" name="LTHOMAS"> F  </i>
   <i type="logical" name="LMODELHF"> F  </i>
   <i name="ENCUT4O">     -1.00000000</i>
   <i type="int" name="EXXOEP">     0</i>
   <i type="int" name="FOURORBIT">     0</i>
   <i name="AEXX">      0.00000000</i>
   <i name="HFALPHA">      0.00000000</i>
   <i name="MCALPHA">      0.00000000</i>
   <i name="ALDAX">      1.00000000</i>
   <i name="AGGAX">      1.00000000</i>
   <i name="ALDAC">      1.00000000</i>
   <i name="AGGAC">      1.00000000</i>
   <i type="int" name="NKREDX">     1</i>
   <i type="int" name="NKREDY">     1</i>
   <i type="int" name="NKREDZ">     1</i>
   <i type="logical" name="SHIFTRED"> F  </i>
   <i type="logical" name="ODDONLY"> F  </i>
   <i type="logical" name="EVENONLY"> F  </i>
   <i type="int" name="LMAXFOCK">     0</i>
   <i type="int" name="NMAXFOCKAE">     0</i>
   <i type="logical" name="LFOCKAEDFT"> F  </i>
   <i name="HFSCREEN">      0.00000000</i>
   <i name="HFSCREENC">      0.00000000</i>
   <i type="int" name="NBANDSGWLOW">     0</i>
  </separator>
  <separator name="vdW DFT" >
   <i type="logical" name="LUSE_VDW"> F  </i>
   <i name="Zab_VDW">     -0.84910000</i>
   <i name="PARAM1">      0.12340000</i>
   <i name="PARAM2">      1.00000000</i>
   <i name="PARAM3">      0.00000000</i>
  </separator>
  <separator name="model GW" >
   <i type="int" name="MODEL_GW">     0</i>
   <i name="MODEL_EPS0">     31.96639769</i>
   <i name="MODEL_ALPHA">      1.00000000</i>
  </separator>
  <separator name="linear response parameters" >
   <i type="logical" name="LEPSILON"> F  </i>
   <i type="logical" name="LRPA"> F  </i>
   <i type="logical" name="LNABLA"> F  </i>
   <i type="logical" name="LVEL"> F  </i>
   <i type="int" name="KINTER">     0</i>
   <i name="CSHIFT">      0.10000000</i>
   <i name="OMEGAMAX">     -1.00000000</i>
   <i name="DEG_THRESHOLD">      0.00200000</i>
   <i name="RTIME">     -0.10000000</i>
   <i name="WPLASMAI">      0.00000000</i>
   <v name="DFIELD">      0.00000000      0.00000000      0.00000000</v>
   <v name="WPLASMA">      0.00000000      0.00000000      0.00000000      0.00000000      0.00000000      0.00000000      0.00000000      0.00000000      0.00000000</v>
  </separator>
  <separator name="orbital magnetization" >
   <i type="logical" name="NUCIND"> F  </i>
   <v name="MAGPOS">      0.00000000      0.00000000      0.00000000</v>
   <i type="logical" name="LNICSALL"> T  </i>
   <i type="logical" name="ORBITALMAG"> F  </i>
   <i type="logical" name="LMAGBLOCH"> F  </i>
   <i type="logical" name="LCHIMAG"> F  </i>
   <i type="logical" name="LGAUGE"> T  </i>
   <i type="int" name="MAGATOM">     0</i>
   <v name="MAGDIPOL">      0.00000000      0.00000000      0.00000000</v>
   <v name="AVECCONST">      0.00000000      0.00000000      0.00000000</v>
  </separator>
  <separator name="response functions" >
   <i type="logical" name="LADDER"> F  </i>
   <i type="logical" name="LRPAFORCE"> F  </i>
   <i type="logical" name="LFXC"> F  </i>
   <i type="logical" name="LHARTREE"> T  </i>
   <i type="int" name="IBSE">     0</i>
   <v type="int" name="KPOINT">    -1     0     0     0</v>
   <i type="logical" name="LTCTE"> F  </i>
   <i type="logical" name="LTETE"> F  </i>
   <i type="logical" name="LTRIPLET"> F  </i>
   <i type="logical" name="LFXCEPS"> F  </i>
   <i type="logical" name="LFXHEG"> F  </i>
   <i type="int" name="NATURALO">     2</i>
   <i type="logical" name="L2ORDER"> F  </i>
   <i type="logical" name="LMP2LT"> F  </i>
   <i type="logical" name="LUSEW"> F  </i>
   <i name="ENCUTGW">     -2.00000000</i>
   <i name="ENCUTGWSOFT">     -2.00000000</i>
   <i name="ENCUTLF">     -1.00000000</i>
   <i type="int" name="LMAXMP2">    -1</i>
   <i name="SCISSOR">      0.00000000</i>
   <i type="int" name="NOMEGA">     0</i>
   <i type="int" name="NOMEGAR">     0</i>
   <i type="int" name="NBANDSGW">    -1</i>
   <i type="int" name="NBANDSO">    -1</i>
   <i type="int" name="NBANDSV">    -1</i>
   <i type="int" name="NELM">  1000</i>
   <i type="int" name="NELMHF">     1</i>
   <i type="int" name="DIM">     3</i>
   <i type="int" name="ANTIRES">     0</i>
   <i name="OMEGAMAX">    -30.00000000</i>
   <i name="OMEGAMIN">    -30.00000000</i>
   <i name="OMEGATL">   -200.00000000</i>
   <i type="int" name="OMEGAGRID">   140</i>
   <i name="CSHIFT">     -0.10000000</i>
   <i type="logical" name="SELFENERGY"> F  </i>
   <i type="logical" name="LSPECTRAL"> F  </i>
   <i type="logical" name="LSPECTRALGW"> F  </i>
   <i type="logical" name="LSINGLES"> F  </i>
   <i type="logical" name="LFERMIGW"> F  </i>
   <i type="logical" name="ODDONLYGW"> F  </i>
   <i type="logical" name="EVENONLYGW"> F  </i>
   <i type="int" name="NKREDLFX">     1</i>
   <i type="int" name="NKREDLFY">     1</i>
   <i type="int" name="NKREDLFZ">     1</i>
   <i type="int" name="MAXMEM">  2800</i>
   <i type="int" name="TELESCOPE">     0</i>
   <i type="int" name="TAUPAR">     1</i>
   <i type="int" name="OMEGAPAR">    -1</i>
   <i name="LAMBDA">      1.00000000</i>
  </separator>
  <separator name="External order field" >
   <i name="OFIELD_KAPPA">      0.00000000</i>
   <v name="OFIELD_K">      0.00000000      0.00000000      0.00000000</v>
   <i name="OFIELD_Q6_NEAR">      0.00000000</i>
   <i name="OFIELD_Q6_FAR">      0.00000000</i>
   <i name="OFIELD_A">      0.00000000</i>
  </separator>
 </parameters>
 <atominfo>
  <atoms>      27 </atoms>
  <types>       2 </types>
  <array name="atoms" >
   <dimension dim="1">ion</dimension>
   <field type="string">element</field>
   <field type="int">atomtype</field>
   <set>
    <rc><c>Mo</c><c>   1</c></rc>
    <rc><c>Mo</c><c>   1</c></rc>
    <rc><c>Mo</c><c>   1</c></rc>
    <rc><c>Mo</c><c>   1</c></rc>
    <rc><c>Mo</c><c>   1</c></rc>
    <rc><c>Mo</c><c>   1</c></rc>
    <rc><c>Mo</c><c>   1</c></rc>
    <rc><c>Mo</c><c>   1</c></rc>
    <rc><c>Mo</c><c>   1</c></rc>
    <rc><c>S </c><c>   2</c></rc>
    <rc><c>S </c><c>   2</c></rc>
    <rc><c>S </c><c>   2</c></rc>
    <rc><c>S </c><c>   2</c></rc>
    <rc><c>S </c><c>   2</c></rc>
    <rc><c>S </c><c>   2</c></rc>
    <rc><c>S </c><c>   2</c></rc>
    <rc><c>S </c><c>   2</c></rc>
    <rc><c>S </c><c>   2</c></rc>
    <rc><c>S </c><c>   2</c></rc>
    <rc><c>S </c><c>   2</c></rc>
    <rc><c>S </c><c>   2</c></rc>
    <rc><c>S </c><c>   2</c></rc>
    <rc><c>S </c><c>   2</c></rc>
    <rc><c>S </c><c>   2</c></rc>
    <rc><c>S </c><c>   2</c></rc>
    <rc><c>S </c><c>   2</c></rc>
    <rc><c>S </c><c>   2</c></rc>
   </set>
  </array>
  <array name="atomtypes" >
   <dimension dim="1">type</dimension>
   <field type="int">atomspertype</field>
   <field type="string">element</field>
   <field>mass</field>
   <field>valence</field>
   <field type="string">pseudopotential</field>
   <set>
    <rc><c>   9</c><c>Mo</c><c>     95.94000000</c><c>     14.00000000</c><c>  PAW_PBE Mo_sv 02Feb2006               </c></rc>
    <rc><c>  18</c><c>S </c><c>     32.06600000</c><c>      6.00000000</c><c>  PAW_PBE S 06Sep2000                   </c></rc>
   </set>
  </array>
 </atominfo>
 <structure name="initialpos" >
  <crystal>
   <varray name="basis" >
    <v>       9.56424100       0.00000000       0.00000000 </v>
    <v>      -4.78212000       8.28287600       0.00000000 </v>
    <v>      -0.00000000       0.00000000      18.15827300 </v>
   </varray>
   <i name="volume">   1438.48789588 </i>
   <varray name="rec_basis" >
    <v>       0.10455613       0.06036550       0.00000000 </v>
    <v>       0.00000000       0.12073101      -0.00000000 </v>
    <v>       0.00000000      -0.00000000       0.05507132 </v>
   </varray>
  </crystal>
  <varray name="positions" >
   <v>       0.03649080       0.01801991       0.49529974 </v>
   <v>       0.30908334       0.34569140       0.49889663 </v>
   <v>       0.65895487       0.02076512       0.50179097 </v>
   <v>       0.32412205       0.96797874       0.49727116 </v>
   <v>       0.36188646       0.67883960       0.49942027 </v>
   <v>       0.69990222       0.34455430       0.50044017 </v>
   <v>       0.97830471       0.30151804       0.49936334 </v>
   <v>       0.65036377       0.63711773       0.50177667 </v>
   <v>       0.98579094       0.68793346       0.49853587 </v>
   <v>       0.54635735       0.11708250       0.58446328 </v>
   <v>       0.22525435       0.11499675       0.58564431 </v>
   <v>       0.10610097       0.22680634       0.40833655 </v>
   <v>       0.20494983       0.44677893       0.58632136 </v>
   <v>       0.10699413       0.55501209       0.42729735 </v>
   <v>       0.21798665       0.76633349       0.58460490 </v>
   <v>       0.11375911       0.88549678       0.40791687 </v>
   <v>       0.45858003       0.23805010       0.43623241 </v>
   <v>       0.45238459       0.87862307       0.41311924 </v>
   <v>       0.54608320       0.43034807       0.58589888 </v>
   <v>       0.56061005       0.77649857       0.58679717 </v>
   <v>       0.44717777       0.55861522       0.40939753 </v>
   <v>       0.88545288       0.09354919       0.58356742 </v>
   <v>       0.76415913       0.21206361       0.40670910 </v>
   <v>       0.90952986       0.45755169       0.58554404 </v>
   <v>       0.77751420       0.55723606       0.41198197 </v>
   <v>       0.88775229       0.78978226       0.58660330 </v>
   <v>       0.77469549       0.88793983       0.43112191 </v>
  </varray>
 </structure>
 <calculation>
  <scstep>
   <time name="dav">   83.24   83.64</time>
   <time name="total">   83.80   84.22</time>
   <energy>
    <i name="alphaZ">    266.37941352 </i>
    <i name="ewald">  40839.15422465 </i>
    <i name="hartreedc"> -59886.46731923 </i>
    <i name="XCdc">    823.41943252 </i>
    <i name="pawpsdc">  17395.10119161 </i>
    <i name="pawaedc"> -17171.31696658 </i>
    <i name="eentropy">     -0.01659173 </i>
    <i name="bandstr">  -1765.57332443 </i>
    <i name="atom">  21743.34108040 </i>
    <i name="e_fr_energy">   2244.02114072 </i>
    <i name="e_wo_entrp">   2244.03773244 </i>
    <i name="e_0_energy">   2244.02943658 </i>
   </energy>
  </scstep>
  <scstep>
   <time name="dav">   89.96   90.38</time>
   <time name="total">   89.97   90.39</time>
   <energy>
    <i name="e_fr_energy">     15.02024895 </i>
    <i name="e_wo_entrp">     15.02232086 </i>
    <i name="e_0_energy">     15.02128490 </i>
   </energy>
  </scstep>
  <scstep>
   <time name="dav">   79.17   79.53</time>
   <time name="total">   79.18   79.53</time>
   <energy>
    <i name="e_fr_energy">   -195.54182166 </i>
    <i name="e_wo_entrp">   -195.54182166 </i>
    <i name="e_0_energy">   -195.54182166 </i>
   </energy>
  </scstep>
  <scstep>
   <time name="dav">   86.32   86.71</time>
   <time name="total">   86.32   86.71</time>
   <energy>
    <i name="e_fr_energy">   -203.72348284 </i>
    <i name="e_wo_entrp">   -203.72348284 </i>
    <i name="e_0_energy">   -203.72348284 </i>
   </energy>
  </scstep>
  <scstep>
   <time name="dav">   93.42   93.85</time>
   <time name="total">   99.85  100.31</time>
   <energy>
    <i name="e_fr_energy">   -204.00388555 </i>
    <i name="e_wo_entrp">   -204.00388555 </i>
    <i name="e_0_energy">   -204.00388555 </i>
   </energy>
  </scstep>
  <scstep>
   <time name="dav">   76.91   77.29</time>
   <time name="total">   83.88   84.28</time>
   <energy>
    <i name="e_fr_energy">   -194.47128967 </i>
    <i name="e_wo_entrp">   -194.47128967 </i>
    <i name="e_0_energy">   -194.47128967 </i>
   </energy>
  </scstep>
  <scstep>
   <time name="dav">   75.07   75.43</time>
   <time name="total">   81.92   82.30</time>
   <energy>
    <i name="e_fr_energy">   -193.14912063 </i>
    <i name="e_wo_entrp">   -193.14912063 </i>
    <i name="e_0_energy">   -193.14912063 </i>
   </energy>
  </scstep>
  <scstep>
   <time name="dav">   78.40   78.78</time>
   <time name="total">   85.23   85.63</time>
   <energy>
    <i name="e_fr_energy">   -190.88501475 </i>
    <i name="e_wo_entrp">   -190.88501475 </i>
    <i name="e_0_energy">   -190.88501475 </i>
   </energy>
  </scstep>
  <scstep>
   <time name="dav">   86.74   87.13</time>
   <time name="total">   93.57   93.99</time>
   <energy>
    <i name="e_fr_energy">   -190.85948139 </i>
    <i name="e_wo_entrp">   -190.85948139 </i>
    <i name="e_0_energy">   -190.85948139 </i>
   </energy>
  </scstep>
  <scstep>
   <time name="dav">   78.79   79.18</time>
   <time name="total">   85.63   86.04</time>
   <energy>
    <i name="e_fr_energy">   -190.75789073 </i>
    <i name="e_wo_entrp">   -190.75789073 </i>
    <i name="e_0_energy">   -190.75789073 </i>
   </energy>
  </scstep>
  <scstep>
   <time name="dav">   85.64   86.12</time>
   <time name="total">   92.39   92.91</time>
   <energy>
    <i name="e_fr_energy">   -190.73442971 </i>
    <i name="e_wo_entrp">   -190.73442971 </i>
    <i name="e_0_energy">   -190.73442971 </i>
   </energy>
  </scstep>
  <scstep>
   <time name="dav">   79.31   79.74</time>
   <time name="total">   86.06   86.52</time>
   <energy>
    <i name="e_fr_energy">   -190.72877619 </i>
    <i name="e_wo_entrp">   -190.72877619 </i>
    <i name="e_0_energy">   -190.72877619 </i>
   </energy>
  </scstep>
  <scstep>
   <time name="dav">   77.89   78.31</time>
   <time name="total">   84.64   85.09</time>
   <energy>
    <i name="e_fr_energy">   -190.72152316 </i>
    <i name="e_wo_entrp">   -190.72152316 </i>
    <i name="e_0_energy">   -190.72152316 </i>
   </energy>
  </scstep>
  <scstep>
   <time name="dav">   87.18   87.67</time>
   <time name="total">   93.92   94.44</time>
   <energy>
    <i name="e_fr_energy">   -190.72082251 </i>
    <i name="e_wo_entrp">   -190.72082251 </i>
    <i name="e_0_energy">   -190.72082251 </i>
   </energy>
  </scstep>
  <scstep>
   <time name="dav">   79.02   79.47</time>
   <time name="total">   85.78   86.25</time>
   <energy>
    <i name="e_fr_energy">   -190.72037548 </i>
    <i name="e_wo_entrp">   -190.72037548 </i>
    <i name="e_0_energy">   -190.72037548 </i>
   </energy>
  </scstep>
  <scstep>
   <time name="dav">   80.29   80.75</time>
   <time name="total">   87.05   87.54</time>
   <energy>
    <i name="e_fr_energy">   -190.72012511 </i>
    <i name="e_wo_entrp">   -190.72012511 </i>
    <i name="e_0_energy">   -190.72012511 </i>
   </energy>
  </scstep>
  <scstep>
   <time name="dav">   79.82   80.26</time>
   <time name="total">   86.55   87.02</time>
   <energy>
    <i name="e_fr_energy">   -190.72036861 </i>
    <i name="e_wo_entrp">   -190.72036861 </i>
    <i name="e_0_energy">   -190.72036861 </i>
   </energy>
  </scstep>
  <scstep>
   <time name="dav">   84.53   84.99</time>
   <time name="total">   91.28   91.77</time>
   <energy>
    <i name="e_fr_energy">   -190.72087691 </i>
    <i name="e_wo_entrp">   -190.72087691 </i>
    <i name="e_0_energy">   -190.72087691 </i>
   </energy>
  </scstep>
  <scstep>
   <time name="dav">   77.66   78.08</time>
   <time name="total">   84.43   84.88</time>
   <energy>
    <i name="e_fr_energy">   -190.72137524 </i>
    <i name="e_wo_entrp">   -190.72137524 </i>
    <i name="e_0_energy">   -190.72137524 </i>
   </energy>
  </scstep>
  <scstep>
   <time name="dav">   77.52   77.93</time>
   <time name="total">   84.28   84.73</time>
   <energy>
    <i name="e_fr_energy">   -190.72160917 </i>
    <i name="e_wo_entrp">   -190.72160917 </i>
    <i name="e_0_energy">   -190.72160917 </i>
   </energy>
  </scstep>
  <scstep>
   <time name="dav">   79.51   79.94</time>
   <time name="total">   86.27   86.74</time>
   <energy>
    <i name="e_fr_energy">   -190.72173902 </i>
    <i name="e_wo_entrp">   -190.72173902 </i>
    <i name="e_0_energy">   -190.72173902 </i>
   </energy>
  </scstep>
  <scstep>
   <time name="dav">   70.60   71.00</time>
   <time name="total">   77.38   77.81</time>
   <energy>
    <i name="e_fr_energy">   -190.72185186 </i>
    <i name="e_wo_entrp">   -190.72185186 </i>
    <i name="e_0_energy">   -190.72185186 </i>
   </energy>
  </scstep>
  <scstep>
   <time name="dav">   66.22   66.59</time>
   <time name="total">   72.95   73.35</time>
   <energy>
    <i name="e_fr_energy">   -190.72192935 </i>
    <i name="e_wo_entrp">   -190.72192935 </i>
    <i name="e_0_energy">   -190.72192935 </i>
   </energy>
  </scstep>
  <scstep>
   <time name="dav">   66.27   66.59</time>
   <time name="total">   73.00   73.35</time>
   <energy>
    <i name="e_fr_energy">   -190.72201774 </i>
    <i name="e_wo_entrp">   -190.72201774 </i>
    <i name="e_0_energy">   -190.72201774 </i>
   </energy>
  </scstep>
  <scstep>
   <time name="dav">   58.88   59.16</time>
   <time name="total">   65.62   65.92</time>
   <energy>
    <i name="e_fr_energy">   -190.72212755 </i>
    <i name="e_wo_entrp">   -190.72212755 </i>
    <i name="e_0_energy">   -190.72212755 </i>
   </energy>
  </scstep>
  <scstep>
   <time name="dav">   61.44   61.76</time>
   <time name="total">   68.10   68.45</time>
   <energy>
    <i name="e_fr_energy">   -190.72223432 </i>
    <i name="e_wo_entrp">   -190.72223432 </i>
    <i name="e_0_energy">   -190.72223432 </i>
   </energy>
  </scstep>
  <scstep>
   <time name="dav">   55.73   56.01</time>
   <time name="total">   62.47   62.78</time>
   <energy>
    <i name="e_fr_energy">   -190.72226605 </i>
    <i name="e_wo_entrp">   -190.72226605 </i>
    <i name="e_0_energy">   -190.72226605 </i>
   </energy>
  </scstep>
  <scstep>
   <time name="dav">   56.76   57.05</time>
   <time name="total">   63.41   63.72</time>
   <energy>
    <i name="e_fr_energy">   -190.72229522 </i>
    <i name="e_wo_entrp">   -190.72229522 </i>
    <i name="e_0_energy">   -190.72229522 </i>
   </energy>
  </scstep>
  <scstep>
   <time name="dav">   53.15   53.42</time>
   <time name="total">   59.86   60.15</time>
   <energy>
    <i name="e_fr_energy">   -190.72230979 </i>
    <i name="e_wo_entrp">   -190.72230979 </i>
    <i name="e_0_energy">   -190.72230979 </i>
   </energy>
  </scstep>
  <scstep>
   <time name="dav">   47.53   47.78</time>
   <time name="total">   54.24   54.51</time>
   <energy>
    <i name="e_fr_energy">   -190.72231583 </i>
    <i name="e_wo_entrp">   -190.72231583 </i>
    <i name="e_0_energy">   -190.72231583 </i>
   </energy>
  </scstep>
  <scstep>
   <time name="dav">   50.70   50.96</time>
   <time name="total">   57.40   57.68</time>
   <energy>
    <i name="e_fr_energy">   -190.72232021 </i>
    <i name="e_wo_entrp">   -190.72232021 </i>
    <i name="e_0_energy">   -190.72232021 </i>
   </energy>
  </scstep>
  <scstep>
   <time name="dav">   46.47   46.70</time>
   <time name="total">   53.17   53.43</time>
   <energy>
    <i name="e_fr_energy">   -190.72232234 </i>
    <i name="e_wo_entrp">   -190.72232234 </i>
    <i name="e_0_energy">   -190.72232234 </i>
   </energy>
  </scstep>
  <scstep>
   <time name="dav">   44.88   45.10</time>
   <time name="total">   45.39   45.62</time>
   <energy>
    <i name="alphaZ">    266.37941352 </i>
    <i name="ewald">  40839.15422465 </i>
    <i name="hartreedc"> -59870.47094796 </i>
    <i name="XCdc">    818.92871423 </i>
    <i name="pawpsdc">  26914.05696813 </i>
    <i name="pawaedc"> -26725.49208211 </i>
    <i name="eentropy">     -0.00000000 </i>
    <i name="bandstr">  -4176.61969368 </i>
    <i name="atom">  21743.34108040 </i>
    <i name="e_fr_energy">   -190.72232282 </i>
    <i name="e_wo_entrp">   -190.72232282 </i>
    <i name="e_0_energy">   -190.72232282 </i>
   </energy>
  </scstep>
  <structure>
   <crystal>
    <varray name="basis" >
     <v>       9.56424100       0.00000000       0.00000000 </v>
     <v>      -4.78212000       8.28287600       0.00000000 </v>
     <v>      -0.00000000       0.00000000      18.15827300 </v>
    </varray>
    <i name="volume">   1438.48789588 </i>
    <varray name="rec_basis" >
     <v>       0.10455613       0.06036550       0.00000000 </v>
     <v>       0.00000000       0.12073101      -0.00000000 </v>
     <v>       0.00000000      -0.00000000       0.05507132 </v>
    </varray>
   </crystal>
   <varray name="positions" >
    <v>       0.03649080       0.01801991       0.49529974 </v>
    <v>       0.30908334       0.34569140       0.49889663 </v>
    <v>       0.65895487       0.02076512       0.50179097 </v>
    <v>       0.32412205       0.96797874       0.49727116 </v>
    <v>       0.36188646       0.67883960       0.49942027 </v>
    <v>       0.69990222       0.34455430       0.50044017 </v>
    <v>       0.97830471       0.30151804       0.49936334 </v>
    <v>       0.65036377       0.63711773       0.50177667 </v>
    <v>       0.98579094       0.68793346       0.49853587 </v>
    <v>       0.54635735       0.11708250       0.58446328 </v>
    <v>       0.22525435       0.11499675       0.58564431 </v>
    <v>       0.10610097       0.22680634       0.40833655 </v>
    <v>       0.20494983       0.44677893       0.58632136 </v>
    <v>       0.10699413       0.55501209       0.42729735 </v>
    <v>       0.21798665       0.76633349       0.58460490 </v>
    <v>       0.11375911       0.88549678       0.40791687 </v>
    <v>       0.45858003       0.23805010       0.43623241 </v>
    <v>       0.45238459       0.87862307       0.41311924 </v>
    <v>       0.54608320       0.43034807       0.58589888 </v>
    <v>       0.56061005       0.77649857       0.58679717 </v>
    <v>       0.44717777       0.55861522       0.40939753 </v>
    <v>       0.88545288       0.09354919       0.58356742 </v>
    <v>       0.76415913       0.21206361       0.40670910 </v>
    <v>       0.90952986       0.45755169       0.58554404 </v>
    <v>       0.77751420       0.55723606       0.41198197 </v>
    <v>       0.88775229       0.78978226       0.58660330 </v>
    <v>       0.77469549       0.88793983       0.43112191 </v>
   </varray>
  </structure>
  <varray name="forces" >
   <v>      -0.29996116      -0.27978207       0.23018747 </v>
   <v>       0.13505156       0.75959238       0.42730346 </v>
   <v>      -0.78679924      -0.40084905      -0.18545683 </v>
   <v>      -0.57575881      -0.09165273       0.40063775 </v>
   <v>       0.30550410      -0.44708893       0.55994828 </v>
   <v>       0.73458732       1.18416828       0.38800554 </v>
   <v>      -0.05227294      -0.49460763      -0.50486109 </v>
   <v>       0.05129302      -0.61165367      -0.11990870 </v>
   <v>       0.02747237      -0.26504459       0.38631282 </v>
   <v>       0.24781402       0.04040607       0.96524077 </v>
   <v>       0.56137077       0.01875798       0.00675117 </v>
   <v>       0.23696847      -0.11928582      -0.83258562 </v>
   <v>       0.65434640      -0.14170445       0.00967803 </v>
   <v>       0.17004428       0.06914795       0.26775088 </v>
   <v>      -0.14687588       0.38281132       0.13342466 </v>
   <v>       0.07515218       0.48674434      -0.85462484 </v>
   <v>      -1.17530938      -1.49417349      -0.88272684 </v>
   <v>      -0.60812892       0.96812318      -1.44671196 </v>
   <v>       0.03790297       0.16177609       0.38451932 </v>
   <v>      -0.05889274       0.25994167       0.55020512 </v>
   <v>       0.01099620      -0.42244316      -0.12342775 </v>
   <v>      -0.21748881       0.36221283       0.68633270 </v>
   <v>       0.53224446       0.60568928       0.10185441 </v>
   <v>      -0.52260725      -0.34869107       0.29804104 </v>
   <v>       0.04362514      -0.11655565      -0.62765271 </v>
   <v>       0.09351401      -0.09482898      -0.08549370 </v>
   <v>       0.52620785       0.02898993      -0.13274338 </v>
  </varray>
  <varray name="stress" >
   <v>      19.82262700       0.12332999       1.09157763 </v>
   <v>       0.12333004      19.27278654       0.34377250 </v>
   <v>       1.09157763       0.34377254      12.50925006 </v>
  </varray>
  <energy>
   <i name="e_fr_energy">   -190.72232282 </i>
   <i name="e_wo_entrp">   -190.72232282 </i>
   <i name="e_0_energy">     -0.00000000 </i>
  </energy>
  <time name="totalsc"> 2707.49 2721.47</time>
  <eigenvalues>
   <array>
    <dimension dim="1">band</dimension>
    <dimension dim="2">kpoint</dimension>
    <dimension dim="3">spin</dimension>
    <field>eigene</field>
    <field>occ</field>
    <set>
     <set comment="spin 1">
      <set comment="kpoint 1">
       <r>  -62.5616    1.0000 </r>
       <r>  -62.5353    1.0000 </r>
       <r>  -62.4678    1.0000 </r>
       <r>  -62.4552    1.0000 </r>
       <r>  -62.4281    1.0000 </r>
       <r>  -62.4177    1.0000 </r>
       <r>  -62.4123    1.0000 </r>
       <r>  -62.3483    1.0000 </r>
       <r>  -62.3246    1.0000 </r>
       <r>  -36.9395    1.0000 </r>
       <r>  -36.8710    1.0000 </r>
       <r>  -36.8488    1.0000 </r>
       <r>  -36.8388    1.0000 </r>
       <r>  -36.8064    1.0000 </r>
       <r>  -36.7922    1.0000 </r>
       <r>  -36.7768    1.0000 </r>
       <r>  -36.7320    1.0000 </r>
       <r>  -36.7038    1.0000 </r>
       <r>  -36.6736    1.0000 </r>
       <r>  -36.6107    1.0000 </r>
       <r>  -36.5782    1.0000 </r>
       <r>  -36.5721    1.0000 </r>
       <r>  -36.5442    1.0000 </r>
       <r>  -36.5219    1.0000 </r>
       <r>  -36.5135    1.0000 </r>
       <r>  -36.4926    1.0000 </r>
       <r>  -36.4835    1.0000 </r>
       <r>  -36.4629    1.0000 </r>
       <r>  -36.4567    1.0000 </r>
       <r>  -36.4422    1.0000 </r>
       <r>  -36.4299    1.0000 </r>
       <r>  -36.4232    1.0000 </r>
       <r>  -36.4039    1.0000 </r>
       <r>  -36.3830    1.0000 </r>
       <r>  -36.3504    1.0000 </r>
       <r>  -36.3006    1.0000 </r>
       <r>  -15.7265    1.0000 </r>
       <r>  -14.6366    1.0000 </r>
       <r>  -14.5615    1.0000 </r>
       <r>  -14.5517    1.0000 </r>
       <r>  -14.4516    1.0000 </r>
       <r>  -14.4012    1.0000 </r>
       <r>  -14.3708    1.0000 </r>
       <r>  -14.3431    1.0000 </r>
       <r>  -14.0392    1.0000 </r>
       <r>  -13.9887    1.0000 </r>
       <r>  -13.9603    1.0000 </r>
       <r>  -13.9273    1.0000 </r>
       <r>  -13.7546    1.0000 </r>
       <r>  -13.6097    1.0000 </r>
       <r>  -13.5933    1.0000 </r>
       <r>  -13.5817    1.0000 </r>
       <r>  -13.4777    1.0000 </r>
       <r>  -13.1527    1.0000 </r>
       <r>   -7.1473    1.0000 </r>
       <r>   -6.9337    1.0000 </r>
       <r>   -6.8918    1.0000 </r>
       <r>   -6.7888    1.0000 </r>
       <r>   -6.7714    1.0000 </r>
       <r>   -6.7018    1.0000 </r>
       <r>   -6.6415    1.0000 </r>
       <r>   -6.5679    1.0000 </r>
       <r>   -6.5289    1.0000 </r>
       <r>   -6.5103    1.0000 </r>
       <r>   -6.4718    1.0000 </r>
       <r>   -6.3881    1.0000 </r>
       <r>   -6.3766    1.0000 </r>
       <r>   -6.3453    1.0000 </r>
       <r>   -6.2647    1.0000 </r>
       <r>   -6.1870    1.0000 </r>
       <r>   -6.1312    1.0000 </r>
       <r>   -6.0487    1.0000 </r>
       <r>   -5.9828    1.0000 </r>
       <r>   -5.5335    1.0000 </r>
       <r>   -5.4476    1.0000 </r>
       <r>   -5.3737    1.0000 </r>
       <r>   -5.3624    1.0000 </r>
       <r>   -5.2003    1.0000 </r>
       <r>   -5.1643    1.0000 </r>
       <r>   -4.8902    1.0000 </r>
       <r>   -4.7869    1.0000 </r>
       <r>   -4.7578    1.0000 </r>
       <r>   -4.7336    1.0000 </r>
       <r>   -4.7047    1.0000 </r>
       <r>   -4.6737    1.0000 </r>
       <r>   -4.6210    1.0000 </r>
       <r>   -4.5126    1.0000 </r>
       <r>   -4.4727    1.0000 </r>
       <r>   -4.4183    1.0000 </r>
       <r>   -4.4040    1.0000 </r>
       <r>   -4.3540    1.0000 </r>
       <r>   -4.3000    1.0000 </r>
       <r>   -4.2189    1.0000 </r>
       <r>   -3.7638    1.0000 </r>
       <r>   -3.7296    1.0000 </r>
       <r>   -3.6932    1.0000 </r>
       <r>   -3.6281    1.0000 </r>
       <r>   -3.4831    1.0000 </r>
       <r>   -3.4325    1.0000 </r>
       <r>   -3.1714    1.0000 </r>
       <r>   -3.1068    1.0000 </r>
       <r>   -2.9367    1.0000 </r>
       <r>   -2.9177    1.0000 </r>
       <r>   -2.8720    1.0000 </r>
       <r>   -2.8511    1.0000 </r>
       <r>   -2.7908    1.0000 </r>
       <r>   -2.5434    1.0000 </r>
       <r>   -2.5152    1.0000 </r>
       <r>   -2.4268    1.0000 </r>
       <r>   -2.3340    1.0000 </r>
       <r>   -2.0033    1.0000 </r>
       <r>   -1.9305    1.0000 </r>
       <r>   -1.8909    1.0000 </r>
       <r>   -1.8425    1.0000 </r>
       <r>   -1.7558    1.0000 </r>
       <r>   -1.5247    1.0000 </r>
       <r>   -1.4833    1.0000 </r>
       <r>   -0.7113    0.0000 </r>
       <r>   -0.3729    0.0000 </r>
       <r>   -0.2989    0.0000 </r>
       <r>   -0.1715    0.0000 </r>
       <r>   -0.1626    0.0000 </r>
       <r>   -0.0870    0.0000 </r>
       <r>   -0.0566    0.0000 </r>
       <r>    0.0170    0.0000 </r>
       <r>    0.0667    0.0000 </r>
       <r>    0.2886    0.0000 </r>
       <r>    0.7059    0.0000 </r>
       <r>    0.7266    0.0000 </r>
       <r>    0.7883    0.0000 </r>
       <r>    0.8037    0.0000 </r>
       <r>    0.8528    0.0000 </r>
       <r>    0.9345    0.0000 </r>
       <r>    1.0554    0.0000 </r>
       <r>    1.0761    0.0000 </r>
       <r>    1.5139    0.0000 </r>
       <r>    1.9526    0.0000 </r>
       <r>    1.9959    0.0000 </r>
       <r>    2.0113    0.0000 </r>
       <r>    2.0677    0.0000 </r>
      </set>
      <set comment="kpoint 2">
       <r>  -62.5615    1.0000 </r>
       <r>  -62.5354    1.0000 </r>
       <r>  -62.4680    1.0000 </r>
       <r>  -62.4548    1.0000 </r>
       <r>  -62.4287    1.0000 </r>
       <r>  -62.4175    1.0000 </r>
       <r>  -62.4120    1.0000 </r>
       <r>  -62.3482    1.0000 </r>
       <r>  -62.3247    1.0000 </r>
       <r>  -36.9431    1.0000 </r>
       <r>  -36.8830    1.0000 </r>
       <r>  -36.8700    1.0000 </r>
       <r>  -36.8304    1.0000 </r>
       <r>  -36.7948    1.0000 </r>
       <r>  -36.7832    1.0000 </r>
       <r>  -36.7743    1.0000 </r>
       <r>  -36.7205    1.0000 </r>
       <r>  -36.6901    1.0000 </r>
       <r>  -36.6703    1.0000 </r>
       <r>  -36.6138    1.0000 </r>
       <r>  -36.5811    1.0000 </r>
       <r>  -36.5761    1.0000 </r>
       <r>  -36.5480    1.0000 </r>
       <r>  -36.5320    1.0000 </r>
       <r>  -36.5082    1.0000 </r>
       <r>  -36.5031    1.0000 </r>
       <r>  -36.4812    1.0000 </r>
       <r>  -36.4663    1.0000 </r>
       <r>  -36.4565    1.0000 </r>
       <r>  -36.4378    1.0000 </r>
       <r>  -36.4294    1.0000 </r>
       <r>  -36.4213    1.0000 </r>
       <r>  -36.4001    1.0000 </r>
       <r>  -36.3826    1.0000 </r>
       <r>  -36.3519    1.0000 </r>
       <r>  -36.3029    1.0000 </r>
       <r>  -15.6789    1.0000 </r>
       <r>  -14.7657    1.0000 </r>
       <r>  -14.6572    1.0000 </r>
       <r>  -14.5269    1.0000 </r>
       <r>  -14.4836    1.0000 </r>
       <r>  -14.4063    1.0000 </r>
       <r>  -14.2957    1.0000 </r>
       <r>  -14.2517    1.0000 </r>
       <r>  -14.0801    1.0000 </r>
       <r>  -14.0582    1.0000 </r>
       <r>  -13.8981    1.0000 </r>
       <r>  -13.8552    1.0000 </r>
       <r>  -13.7950    1.0000 </r>
       <r>  -13.6436    1.0000 </r>
       <r>  -13.5895    1.0000 </r>
       <r>  -13.5217    1.0000 </r>
       <r>  -13.4360    1.0000 </r>
       <r>  -13.1591    1.0000 </r>
       <r>   -7.2197    1.0000 </r>
       <r>   -7.0854    1.0000 </r>
       <r>   -6.9943    1.0000 </r>
       <r>   -6.9528    1.0000 </r>
       <r>   -6.8834    1.0000 </r>
       <r>   -6.8093    1.0000 </r>
       <r>   -6.7378    1.0000 </r>
       <r>   -6.5928    1.0000 </r>
       <r>   -6.5469    1.0000 </r>
       <r>   -6.4788    1.0000 </r>
       <r>   -6.4614    1.0000 </r>
       <r>   -6.3212    1.0000 </r>
       <r>   -6.2732    1.0000 </r>
       <r>   -6.1562    1.0000 </r>
       <r>   -6.0682    1.0000 </r>
       <r>   -6.0361    1.0000 </r>
       <r>   -5.8977    1.0000 </r>
       <r>   -5.8186    1.0000 </r>
       <r>   -5.7680    1.0000 </r>
       <r>   -5.6891    1.0000 </r>
       <r>   -5.6115    1.0000 </r>
       <r>   -5.3647    1.0000 </r>
       <r>   -5.2730    1.0000 </r>
       <r>   -5.1993    1.0000 </r>
       <r>   -5.1570    1.0000 </r>
       <r>   -5.1215    1.0000 </r>
       <r>   -4.9713    1.0000 </r>
       <r>   -4.8604    1.0000 </r>
       <r>   -4.7869    1.0000 </r>
       <r>   -4.7261    1.0000 </r>
       <r>   -4.6801    1.0000 </r>
       <r>   -4.5893    1.0000 </r>
       <r>   -4.4552    1.0000 </r>
       <r>   -4.4158    1.0000 </r>
       <r>   -4.3609    1.0000 </r>
       <r>   -4.3373    1.0000 </r>
       <r>   -4.3032    1.0000 </r>
       <r>   -4.2746    1.0000 </r>
       <r>   -4.2009    1.0000 </r>
       <r>   -3.8240    1.0000 </r>
       <r>   -3.7683    1.0000 </r>
       <r>   -3.6897    1.0000 </r>
       <r>   -3.6474    1.0000 </r>
       <r>   -3.5787    1.0000 </r>
       <r>   -3.4703    1.0000 </r>
       <r>   -3.2252    1.0000 </r>
       <r>   -3.1158    1.0000 </r>
       <r>   -2.9559    1.0000 </r>
       <r>   -2.9023    1.0000 </r>
       <r>   -2.8541    1.0000 </r>
       <r>   -2.7626    1.0000 </r>
       <r>   -2.7208    1.0000 </r>
       <r>   -2.5569    1.0000 </r>
       <r>   -2.4460    1.0000 </r>
       <r>   -2.3058    1.0000 </r>
       <r>   -2.2402    1.0000 </r>
       <r>   -2.0741    1.0000 </r>
       <r>   -1.9693    1.0000 </r>
       <r>   -1.9449    1.0000 </r>
       <r>   -1.9122    1.0000 </r>
       <r>   -1.7605    1.0000 </r>
       <r>   -1.5871    1.0000 </r>
       <r>   -1.5162    1.0000 </r>
       <r>   -0.7162    0.0000 </r>
       <r>   -0.3234    0.0000 </r>
       <r>   -0.2769    0.0000 </r>
       <r>   -0.2438    0.0000 </r>
       <r>   -0.1424    0.0000 </r>
       <r>   -0.1358    0.0000 </r>
       <r>   -0.0113    0.0000 </r>
       <r>    0.1013    0.0000 </r>
       <r>    0.1228    0.0000 </r>
       <r>    0.3301    0.0000 </r>
       <r>    0.5598    0.0000 </r>
       <r>    0.6665    0.0000 </r>
       <r>    0.8337    0.0000 </r>
       <r>    0.8592    0.0000 </r>
       <r>    0.9589    0.0000 </r>
       <r>    1.0228    0.0000 </r>
       <r>    1.0767    0.0000 </r>
       <r>    1.1279    0.0000 </r>
       <r>    1.4593    0.0000 </r>
       <r>    1.6038    0.0000 </r>
       <r>    1.7189    0.0000 </r>
       <r>    1.8373    0.0000 </r>
       <r>    2.0809    0.0000 </r>
      </set>
      <set comment="kpoint 3">
       <r>  -62.5613    1.0000 </r>
       <r>  -62.5356    1.0000 </r>
       <r>  -62.4683    1.0000 </r>
       <r>  -62.4539    1.0000 </r>
       <r>  -62.4299    1.0000 </r>
       <r>  -62.4173    1.0000 </r>
       <r>  -62.4115    1.0000 </r>
       <r>  -62.3482    1.0000 </r>
       <r>  -62.3247    1.0000 </r>
       <r>  -36.9495    1.0000 </r>
       <r>  -36.9008    1.0000 </r>
       <r>  -36.8914    1.0000 </r>
       <r>  -36.8310    1.0000 </r>
       <r>  -36.7825    1.0000 </r>
       <r>  -36.7730    1.0000 </r>
       <r>  -36.7544    1.0000 </r>
       <r>  -36.6992    1.0000 </r>
       <r>  -36.6685    1.0000 </r>
       <r>  -36.6555    1.0000 </r>
       <r>  -36.6231    1.0000 </r>
       <r>  -36.5936    1.0000 </r>
       <r>  -36.5803    1.0000 </r>
       <r>  -36.5611    1.0000 </r>
       <r>  -36.5406    1.0000 </r>
       <r>  -36.5189    1.0000 </r>
       <r>  -36.5036    1.0000 </r>
       <r>  -36.4799    1.0000 </r>
       <r>  -36.4709    1.0000 </r>
       <r>  -36.4529    1.0000 </r>
       <r>  -36.4381    1.0000 </r>
       <r>  -36.4276    1.0000 </r>
       <r>  -36.4183    1.0000 </r>
       <r>  -36.3944    1.0000 </r>
       <r>  -36.3806    1.0000 </r>
       <r>  -36.3557    1.0000 </r>
       <r>  -36.3068    1.0000 </r>
       <r>  -15.5399    1.0000 </r>
       <r>  -15.0447    1.0000 </r>
       <r>  -14.7332    1.0000 </r>
       <r>  -14.5471    1.0000 </r>
       <r>  -14.4809    1.0000 </r>
       <r>  -14.3810    1.0000 </r>
       <r>  -14.2076    1.0000 </r>
       <r>  -14.1710    1.0000 </r>
       <r>  -14.1038    1.0000 </r>
       <r>  -14.0493    1.0000 </r>
       <r>  -13.9110    1.0000 </r>
       <r>  -13.8695    1.0000 </r>
       <r>  -13.7655    1.0000 </r>
       <r>  -13.7265    1.0000 </r>
       <r>  -13.5913    1.0000 </r>
       <r>  -13.4099    1.0000 </r>
       <r>  -13.3351    1.0000 </r>
       <r>  -13.1826    1.0000 </r>
       <r>   -7.5868    1.0000 </r>
       <r>   -7.1961    1.0000 </r>
       <r>   -7.1017    1.0000 </r>
       <r>   -7.0610    1.0000 </r>
       <r>   -7.0009    1.0000 </r>
       <r>   -6.8966    1.0000 </r>
       <r>   -6.7092    1.0000 </r>
       <r>   -6.4884    1.0000 </r>
       <r>   -6.4682    1.0000 </r>
       <r>   -6.4150    1.0000 </r>
       <r>   -6.3632    1.0000 </r>
       <r>   -6.2811    1.0000 </r>
       <r>   -6.2579    1.0000 </r>
       <r>   -6.0880    1.0000 </r>
       <r>   -5.9539    1.0000 </r>
       <r>   -5.9090    1.0000 </r>
       <r>   -5.8831    1.0000 </r>
       <r>   -5.7033    1.0000 </r>
       <r>   -5.6063    1.0000 </r>
       <r>   -5.4346    1.0000 </r>
       <r>   -5.3923    1.0000 </r>
       <r>   -5.3578    1.0000 </r>
       <r>   -5.2744    1.0000 </r>
       <r>   -5.2363    1.0000 </r>
       <r>   -5.1979    1.0000 </r>
       <r>   -5.1508    1.0000 </r>
       <r>   -5.0643    1.0000 </r>
       <r>   -5.0257    1.0000 </r>
       <r>   -4.9415    1.0000 </r>
       <r>   -4.8039    1.0000 </r>
       <r>   -4.6783    1.0000 </r>
       <r>   -4.5488    1.0000 </r>
       <r>   -4.4972    1.0000 </r>
       <r>   -4.3939    1.0000 </r>
       <r>   -4.3589    1.0000 </r>
       <r>   -4.2897    1.0000 </r>
       <r>   -4.1563    1.0000 </r>
       <r>   -4.0922    1.0000 </r>
       <r>   -4.0232    1.0000 </r>
       <r>   -3.9693    1.0000 </r>
       <r>   -3.9517    1.0000 </r>
       <r>   -3.8676    1.0000 </r>
       <r>   -3.8000    1.0000 </r>
       <r>   -3.7291    1.0000 </r>
       <r>   -3.3766    1.0000 </r>
       <r>   -3.3526    1.0000 </r>
       <r>   -3.2554    1.0000 </r>
       <r>   -2.8894    1.0000 </r>
       <r>   -2.7860    1.0000 </r>
       <r>   -2.7697    1.0000 </r>
       <r>   -2.6459    1.0000 </r>
       <r>   -2.6207    1.0000 </r>
       <r>   -2.5876    1.0000 </r>
       <r>   -2.3972    1.0000 </r>
       <r>   -2.2676    1.0000 </r>
       <r>   -2.1940    1.0000 </r>
       <r>   -2.0893    1.0000 </r>
       <r>   -2.0431    1.0000 </r>
       <r>   -1.9589    1.0000 </r>
       <r>   -1.8960    1.0000 </r>
       <r>   -1.7933    1.0000 </r>
       <r>   -1.6625    1.0000 </r>
       <r>   -1.5990    1.0000 </r>
       <r>   -0.6896    0.0000 </r>
       <r>   -0.4784    0.0000 </r>
       <r>   -0.2865    0.0000 </r>
       <r>   -0.2145    0.0000 </r>
       <r>   -0.0923    0.0000 </r>
       <r>   -0.0340    0.0000 </r>
       <r>    0.0324    0.0000 </r>
       <r>    0.1759    0.0000 </r>
       <r>    0.1858    0.0000 </r>
       <r>    0.4187    0.0000 </r>
       <r>    0.5082    0.0000 </r>
       <r>    0.6029    0.0000 </r>
       <r>    0.9220    0.0000 </r>
       <r>    1.0115    0.0000 </r>
       <r>    1.0465    0.0000 </r>
       <r>    1.0784    0.0000 </r>
       <r>    1.1305    0.0000 </r>
       <r>    1.2022    0.0000 </r>
       <r>    1.2541    0.0000 </r>
       <r>    1.3609    0.0000 </r>
       <r>    1.4169    0.0000 </r>
       <r>    1.6627    0.0000 </r>
       <r>    1.8881    0.0000 </r>
      </set>
      <set comment="kpoint 4">
       <r>  -62.5612    1.0000 </r>
       <r>  -62.5358    1.0000 </r>
       <r>  -62.4684    1.0000 </r>
       <r>  -62.4536    1.0000 </r>
       <r>  -62.4304    1.0000 </r>
       <r>  -62.4173    1.0000 </r>
       <r>  -62.4113    1.0000 </r>
       <r>  -62.3481    1.0000 </r>
       <r>  -62.3248    1.0000 </r>
       <r>  -36.9525    1.0000 </r>
       <r>  -36.9062    1.0000 </r>
       <r>  -36.9012    1.0000 </r>
       <r>  -36.8323    1.0000 </r>
       <r>  -36.7827    1.0000 </r>
       <r>  -36.7661    1.0000 </r>
       <r>  -36.7394    1.0000 </r>
       <r>  -36.6836    1.0000 </r>
       <r>  -36.6613    1.0000 </r>
       <r>  -36.6582    1.0000 </r>
       <r>  -36.6177    1.0000 </r>
       <r>  -36.6025    1.0000 </r>
       <r>  -36.5826    1.0000 </r>
       <r>  -36.5695    1.0000 </r>
       <r>  -36.5452    1.0000 </r>
       <r>  -36.5237    1.0000 </r>
       <r>  -36.5032    1.0000 </r>
       <r>  -36.4800    1.0000 </r>
       <r>  -36.4724    1.0000 </r>
       <r>  -36.4498    1.0000 </r>
       <r>  -36.4408    1.0000 </r>
       <r>  -36.4265    1.0000 </r>
       <r>  -36.4176    1.0000 </r>
       <r>  -36.3925    1.0000 </r>
       <r>  -36.3785    1.0000 </r>
       <r>  -36.3581    1.0000 </r>
       <r>  -36.3084    1.0000 </r>
       <r>  -15.3337    1.0000 </r>
       <r>  -15.3074    1.0000 </r>
       <r>  -14.7585    1.0000 </r>
       <r>  -14.5636    1.0000 </r>
       <r>  -14.4605    1.0000 </r>
       <r>  -14.3912    1.0000 </r>
       <r>  -14.1875    1.0000 </r>
       <r>  -14.1453    1.0000 </r>
       <r>  -14.0540    1.0000 </r>
       <r>  -14.0090    1.0000 </r>
       <r>  -13.9579    1.0000 </r>
       <r>  -13.8738    1.0000 </r>
       <r>  -13.8552    1.0000 </r>
       <r>  -13.6561    1.0000 </r>
       <r>  -13.6313    1.0000 </r>
       <r>  -13.3530    1.0000 </r>
       <r>  -13.2844    1.0000 </r>
       <r>  -13.2004    1.0000 </r>
       <r>   -7.7283    1.0000 </r>
       <r>   -7.2685    1.0000 </r>
       <r>   -7.1662    1.0000 </r>
       <r>   -7.1039    1.0000 </r>
       <r>   -7.0864    1.0000 </r>
       <r>   -6.6821    1.0000 </r>
       <r>   -6.6560    1.0000 </r>
       <r>   -6.6230    1.0000 </r>
       <r>   -6.4069    1.0000 </r>
       <r>   -6.3654    1.0000 </r>
       <r>   -6.3262    1.0000 </r>
       <r>   -6.2729    1.0000 </r>
       <r>   -6.2387    1.0000 </r>
       <r>   -6.0700    1.0000 </r>
       <r>   -5.9897    1.0000 </r>
       <r>   -5.9085    1.0000 </r>
       <r>   -5.8825    1.0000 </r>
       <r>   -5.7516    1.0000 </r>
       <r>   -5.5006    1.0000 </r>
       <r>   -5.4420    1.0000 </r>
       <r>   -5.3864    1.0000 </r>
       <r>   -5.3379    1.0000 </r>
       <r>   -5.2866    1.0000 </r>
       <r>   -5.2400    1.0000 </r>
       <r>   -5.1641    1.0000 </r>
       <r>   -5.0726    1.0000 </r>
       <r>   -5.0053    1.0000 </r>
       <r>   -4.9354    1.0000 </r>
       <r>   -4.9015    1.0000 </r>
       <r>   -4.8262    1.0000 </r>
       <r>   -4.6081    1.0000 </r>
       <r>   -4.5286    1.0000 </r>
       <r>   -4.4577    1.0000 </r>
       <r>   -4.4074    1.0000 </r>
       <r>   -4.3921    1.0000 </r>
       <r>   -4.2785    1.0000 </r>
       <r>   -4.2486    1.0000 </r>
       <r>   -4.1804    1.0000 </r>
       <r>   -4.1506    1.0000 </r>
       <r>   -3.9956    1.0000 </r>
       <r>   -3.9328    1.0000 </r>
       <r>   -3.8763    1.0000 </r>
       <r>   -3.7706    1.0000 </r>
       <r>   -3.7048    1.0000 </r>
       <r>   -3.4433    1.0000 </r>
       <r>   -3.3053    1.0000 </r>
       <r>   -3.2497    1.0000 </r>
       <r>   -3.1595    1.0000 </r>
       <r>   -2.7520    1.0000 </r>
       <r>   -2.7200    1.0000 </r>
       <r>   -2.6812    1.0000 </r>
       <r>   -2.5712    1.0000 </r>
       <r>   -2.4566    1.0000 </r>
       <r>   -2.4172    1.0000 </r>
       <r>   -2.3267    1.0000 </r>
       <r>   -2.1810    1.0000 </r>
       <r>   -2.0116    1.0000 </r>
       <r>   -1.9701    1.0000 </r>
       <r>   -1.9550    1.0000 </r>
       <r>   -1.8664    1.0000 </r>
       <r>   -1.8113    1.0000 </r>
       <r>   -1.7305    1.0000 </r>
       <r>   -1.6394    1.0000 </r>
       <r>   -0.6197    0.0000 </r>
       <r>   -0.5979    0.0000 </r>
       <r>   -0.3363    0.0000 </r>
       <r>   -0.1934    0.0000 </r>
       <r>   -0.0912    0.0000 </r>
       <r>    0.0400    0.0000 </r>
       <r>    0.0832    0.0000 </r>
       <r>    0.1820    0.0000 </r>
       <r>    0.2108    0.0000 </r>
       <r>    0.4702    0.0000 </r>
       <r>    0.5309    0.0000 </r>
       <r>    0.6307    0.0000 </r>
       <r>    0.9622    0.0000 </r>
       <r>    1.0045    0.0000 </r>
       <r>    1.0633    0.0000 </r>
       <r>    1.1125    0.0000 </r>
       <r>    1.1438    0.0000 </r>
       <r>    1.1771    0.0000 </r>
       <r>    1.2295    0.0000 </r>
       <r>    1.2780    0.0000 </r>
       <r>    1.3179    0.0000 </r>
       <r>    1.5934    0.0000 </r>
       <r>    1.7891    0.0000 </r>
      </set>
      <set comment="kpoint 5">
       <r>  -62.5616    1.0000 </r>
       <r>  -62.5353    1.0000 </r>
       <r>  -62.4683    1.0000 </r>
       <r>  -62.4545    1.0000 </r>
       <r>  -62.4287    1.0000 </r>
       <r>  -62.4178    1.0000 </r>
       <r>  -62.4118    1.0000 </r>
       <r>  -62.3483    1.0000 </r>
       <r>  -62.3246    1.0000 </r>
       <r>  -36.9421    1.0000 </r>
       <r>  -36.8869    1.0000 </r>
       <r>  -36.8682    1.0000 </r>
       <r>  -36.8286    1.0000 </r>
       <r>  -36.8048    1.0000 </r>
       <r>  -36.7805    1.0000 </r>
       <r>  -36.7626    1.0000 </r>
       <r>  -36.7161    1.0000 </r>
       <r>  -36.6997    1.0000 </r>
       <r>  -36.6717    1.0000 </r>
       <r>  -36.6118    1.0000 </r>
       <r>  -36.5849    1.0000 </r>
       <r>  -36.5769    1.0000 </r>
       <r>  -36.5464    1.0000 </r>
       <r>  -36.5267    1.0000 </r>
       <r>  -36.5160    1.0000 </r>
       <r>  -36.4980    1.0000 </r>
       <r>  -36.4848    1.0000 </r>
       <r>  -36.4614    1.0000 </r>
       <r>  -36.4554    1.0000 </r>
       <r>  -36.4394    1.0000 </r>
       <r>  -36.4283    1.0000 </r>
       <r>  -36.4212    1.0000 </r>
       <r>  -36.4020    1.0000 </r>
       <r>  -36.3821    1.0000 </r>
       <r>  -36.3542    1.0000 </r>
       <r>  -36.3015    1.0000 </r>
       <r>  -15.6792    1.0000 </r>
       <r>  -14.7648    1.0000 </r>
       <r>  -14.6425    1.0000 </r>
       <r>  -14.5785    1.0000 </r>
       <r>  -14.4568    1.0000 </r>
       <r>  -14.3886    1.0000 </r>
       <r>  -14.2827    1.0000 </r>
       <r>  -14.2760    1.0000 </r>
       <r>  -14.0934    1.0000 </r>
       <r>  -14.0190    1.0000 </r>
       <r>  -13.9126    1.0000 </r>
       <r>  -13.8660    1.0000 </r>
       <r>  -13.7897    1.0000 </r>
       <r>  -13.6365    1.0000 </r>
       <r>  -13.5968    1.0000 </r>
       <r>  -13.5393    1.0000 </r>
       <r>  -13.4203    1.0000 </r>
       <r>  -13.1600    1.0000 </r>
       <r>   -7.2228    1.0000 </r>
       <r>   -7.0992    1.0000 </r>
       <r>   -7.0146    1.0000 </r>
       <r>   -6.9207    1.0000 </r>
       <r>   -6.8984    1.0000 </r>
       <r>   -6.8038    1.0000 </r>
       <r>   -6.7522    1.0000 </r>
       <r>   -6.5878    1.0000 </r>
       <r>   -6.5180    1.0000 </r>
       <r>   -6.4764    1.0000 </r>
       <r>   -6.4708    1.0000 </r>
       <r>   -6.3350    1.0000 </r>
       <r>   -6.2491    1.0000 </r>
       <r>   -6.1269    1.0000 </r>
       <r>   -6.0788    1.0000 </r>
       <r>   -6.0337    1.0000 </r>
       <r>   -5.9211    1.0000 </r>
       <r>   -5.8110    1.0000 </r>
       <r>   -5.7809    1.0000 </r>
       <r>   -5.6574    1.0000 </r>
       <r>   -5.6069    1.0000 </r>
       <r>   -5.3619    1.0000 </r>
       <r>   -5.2939    1.0000 </r>
       <r>   -5.2105    1.0000 </r>
       <r>   -5.1543    1.0000 </r>
       <r>   -5.0977    1.0000 </r>
       <r>   -5.0099    1.0000 </r>
       <r>   -4.8369    1.0000 </r>
       <r>   -4.7867    1.0000 </r>
       <r>   -4.7541    1.0000 </r>
       <r>   -4.6838    1.0000 </r>
       <r>   -4.5500    1.0000 </r>
       <r>   -4.4655    1.0000 </r>
       <r>   -4.4152    1.0000 </r>
       <r>   -4.4013    1.0000 </r>
       <r>   -4.3371    1.0000 </r>
       <r>   -4.3085    1.0000 </r>
       <r>   -4.2446    1.0000 </r>
       <r>   -4.2050    1.0000 </r>
       <r>   -3.7933    1.0000 </r>
       <r>   -3.7684    1.0000 </r>
       <r>   -3.6835    1.0000 </r>
       <r>   -3.6607    1.0000 </r>
       <r>   -3.5896    1.0000 </r>
       <r>   -3.5159    1.0000 </r>
       <r>   -3.1747    1.0000 </r>
       <r>   -3.1257    1.0000 </r>
       <r>   -2.9756    1.0000 </r>
       <r>   -2.9292    1.0000 </r>
       <r>   -2.8819    1.0000 </r>
       <r>   -2.7419    1.0000 </r>
       <r>   -2.7027    1.0000 </r>
       <r>   -2.5346    1.0000 </r>
       <r>   -2.4563    1.0000 </r>
       <r>   -2.3008    1.0000 </r>
       <r>   -2.2575    1.0000 </r>
       <r>   -2.0725    1.0000 </r>
       <r>   -1.9550    1.0000 </r>
       <r>   -1.9114    1.0000 </r>
       <r>   -1.8937    1.0000 </r>
       <r>   -1.7743    1.0000 </r>
       <r>   -1.5720    1.0000 </r>
       <r>   -1.5309    1.0000 </r>
       <r>   -0.7320    0.0000 </r>
       <r>   -0.3688    0.0000 </r>
       <r>   -0.2418    0.0000 </r>
       <r>   -0.2214    0.0000 </r>
       <r>   -0.1961    0.0000 </r>
       <r>   -0.1173    0.0000 </r>
       <r>   -0.0116    0.0000 </r>
       <r>    0.0960    0.0000 </r>
       <r>    0.1401    0.0000 </r>
       <r>    0.3123    0.0000 </r>
       <r>    0.5956    0.0000 </r>
       <r>    0.6476    0.0000 </r>
       <r>    0.8081    0.0000 </r>
       <r>    0.8829    0.0000 </r>
       <r>    0.9663    0.0000 </r>
       <r>    1.0168    0.0000 </r>
       <r>    1.0881    0.0000 </r>
       <r>    1.1169    0.0000 </r>
       <r>    1.4723    0.0000 </r>
       <r>    1.6233    0.0000 </r>
       <r>    1.7371    0.0000 </r>
       <r>    1.8083    0.0000 </r>
       <r>    2.0879    0.0000 </r>
      </set>
      <set comment="kpoint 6">
       <r>  -62.5614    1.0000 </r>
       <r>  -62.5354    1.0000 </r>
       <r>  -62.4687    1.0000 </r>
       <r>  -62.4537    1.0000 </r>
       <r>  -62.4298    1.0000 </r>
       <r>  -62.4174    1.0000 </r>
       <r>  -62.4115    1.0000 </r>
       <r>  -62.3483    1.0000 </r>
       <r>  -62.3247    1.0000 </r>
       <r>  -36.9467    1.0000 </r>
       <r>  -36.8975    1.0000 </r>
       <r>  -36.8899    1.0000 </r>
       <r>  -36.8275    1.0000 </r>
       <r>  -36.7923    1.0000 </r>
       <r>  -36.7743    1.0000 </r>
       <r>  -36.7496    1.0000 </r>
       <r>  -36.6972    1.0000 </r>
       <r>  -36.6814    1.0000 </r>
       <r>  -36.6658    1.0000 </r>
       <r>  -36.6174    1.0000 </r>
       <r>  -36.5983    1.0000 </r>
       <r>  -36.5781    1.0000 </r>
       <r>  -36.5529    1.0000 </r>
       <r>  -36.5380    1.0000 </r>
       <r>  -36.5147    1.0000 </r>
       <r>  -36.5052    1.0000 </r>
       <r>  -36.4829    1.0000 </r>
       <r>  -36.4643    1.0000 </r>
       <r>  -36.4564    1.0000 </r>
       <r>  -36.4360    1.0000 </r>
       <r>  -36.4294    1.0000 </r>
       <r>  -36.4173    1.0000 </r>
       <r>  -36.3977    1.0000 </r>
       <r>  -36.3806    1.0000 </r>
       <r>  -36.3565    1.0000 </r>
       <r>  -36.3044    1.0000 </r>
       <r>  -15.5859    1.0000 </r>
       <r>  -14.8998    1.0000 </r>
       <r>  -14.8451    1.0000 </r>
       <r>  -14.5073    1.0000 </r>
       <r>  -14.4340    1.0000 </r>
       <r>  -14.3936    1.0000 </r>
       <r>  -14.2229    1.0000 </r>
       <r>  -14.2007    1.0000 </r>
       <r>  -14.1085    1.0000 </r>
       <r>  -14.0451    1.0000 </r>
       <r>  -13.8953    1.0000 </r>
       <r>  -13.8378    1.0000 </r>
       <r>  -13.8127    1.0000 </r>
       <r>  -13.7088    1.0000 </r>
       <r>  -13.6035    1.0000 </r>
       <r>  -13.4389    1.0000 </r>
       <r>  -13.3518    1.0000 </r>
       <r>  -13.1718    1.0000 </r>
       <r>   -7.4234    1.0000 </r>
       <r>   -7.3547    1.0000 </r>
       <r>   -7.1557    1.0000 </r>
       <r>   -7.0036    1.0000 </r>
       <r>   -6.8557    1.0000 </r>
       <r>   -6.7934    1.0000 </r>
       <r>   -6.7518    1.0000 </r>
       <r>   -6.5480    1.0000 </r>
       <r>   -6.4928    1.0000 </r>
       <r>   -6.4325    1.0000 </r>
       <r>   -6.3373    1.0000 </r>
       <r>   -6.2937    1.0000 </r>
       <r>   -6.2325    1.0000 </r>
       <r>   -6.1301    1.0000 </r>
       <r>   -6.1114    1.0000 </r>
       <r>   -5.8648    1.0000 </r>
       <r>   -5.8069    1.0000 </r>
       <r>   -5.6676    1.0000 </r>
       <r>   -5.5724    1.0000 </r>
       <r>   -5.5612    1.0000 </r>
       <r>   -5.4664    1.0000 </r>
       <r>   -5.3181    1.0000 </r>
       <r>   -5.2737    1.0000 </r>
       <r>   -5.2600    1.0000 </r>
       <r>   -5.1843    1.0000 </r>
       <r>   -5.1591    1.0000 </r>
       <r>   -5.1466    1.0000 </r>
       <r>   -4.9615    1.0000 </r>
       <r>   -4.8944    1.0000 </r>
       <r>   -4.8134    1.0000 </r>
       <r>   -4.7577    1.0000 </r>
       <r>   -4.5644    1.0000 </r>
       <r>   -4.4625    1.0000 </r>
       <r>   -4.3963    1.0000 </r>
       <r>   -4.3489    1.0000 </r>
       <r>   -4.3022    1.0000 </r>
       <r>   -4.2596    1.0000 </r>
       <r>   -4.1076    1.0000 </r>
       <r>   -4.0362    1.0000 </r>
       <r>   -3.9630    1.0000 </r>
       <r>   -3.9064    1.0000 </r>
       <r>   -3.7930    1.0000 </r>
       <r>   -3.7072    1.0000 </r>
       <r>   -3.5806    1.0000 </r>
       <r>   -3.5466    1.0000 </r>
       <r>   -3.2219    1.0000 </r>
       <r>   -3.1779    1.0000 </r>
       <r>   -2.9828    1.0000 </r>
       <r>   -2.9431    1.0000 </r>
       <r>   -2.8376    1.0000 </r>
       <r>   -2.6664    1.0000 </r>
       <r>   -2.5883    1.0000 </r>
       <r>   -2.4534    1.0000 </r>
       <r>   -2.3958    1.0000 </r>
       <r>   -2.2926    1.0000 </r>
       <r>   -2.1917    1.0000 </r>
       <r>   -2.1689    1.0000 </r>
       <r>   -2.0265    1.0000 </r>
       <r>   -1.9488    1.0000 </r>
       <r>   -1.8719    1.0000 </r>
       <r>   -1.7491    1.0000 </r>
       <r>   -1.7036    1.0000 </r>
       <r>   -1.5297    1.0000 </r>
       <r>   -0.7140    0.0000 </r>
       <r>   -0.3994    0.0000 </r>
       <r>   -0.3430    0.0000 </r>
       <r>   -0.2056    0.0000 </r>
       <r>   -0.1177    0.0000 </r>
       <r>   -0.0617    0.0000 </r>
       <r>    0.0276    0.0000 </r>
       <r>    0.1417    0.0000 </r>
       <r>    0.1870    0.0000 </r>
       <r>    0.3710    0.0000 </r>
       <r>    0.5129    0.0000 </r>
       <r>    0.6021    0.0000 </r>
       <r>    0.9028    0.0000 </r>
       <r>    0.9840    0.0000 </r>
       <r>    1.0274    0.0000 </r>
       <r>    1.0660    0.0000 </r>
       <r>    1.1205    0.0000 </r>
       <r>    1.1793    0.0000 </r>
       <r>    1.3644    0.0000 </r>
       <r>    1.4325    0.0000 </r>
       <r>    1.4911    0.0000 </r>
       <r>    1.7476    0.0000 </r>
       <r>    1.8134    0.0000 </r>
      </set>
      <set comment="kpoint 7">
       <r>  -62.5613    1.0000 </r>
       <r>  -62.5357    1.0000 </r>
       <r>  -62.4687    1.0000 </r>
       <r>  -62.4533    1.0000 </r>
       <r>  -62.4304    1.0000 </r>
       <r>  -62.4175    1.0000 </r>
       <r>  -62.4111    1.0000 </r>
       <r>  -62.3482    1.0000 </r>
       <r>  -62.3247    1.0000 </r>
       <r>  -36.9518    1.0000 </r>
       <r>  -36.9085    1.0000 </r>
       <r>  -36.9011    1.0000 </r>
       <r>  -36.8274    1.0000 </r>
       <r>  -36.7842    1.0000 </r>
       <r>  -36.7737    1.0000 </r>
       <r>  -36.7290    1.0000 </r>
       <r>  -36.6854    1.0000 </r>
       <r>  -36.6682    1.0000 </r>
       <r>  -36.6510    1.0000 </r>
       <r>  -36.6203    1.0000 </r>
       <r>  -36.6075    1.0000 </r>
       <r>  -36.5820    1.0000 </r>
       <r>  -36.5724    1.0000 </r>
       <r>  -36.5414    1.0000 </r>
       <r>  -36.5174    1.0000 </r>
       <r>  -36.5044    1.0000 </r>
       <r>  -36.4813    1.0000 </r>
       <r>  -36.4696    1.0000 </r>
       <r>  -36.4526    1.0000 </r>
       <r>  -36.4403    1.0000 </r>
       <r>  -36.4274    1.0000 </r>
       <r>  -36.4177    1.0000 </r>
       <r>  -36.3933    1.0000 </r>
       <r>  -36.3782    1.0000 </r>
       <r>  -36.3589    1.0000 </r>
       <r>  -36.3073    1.0000 </r>
       <r>  -15.4072    1.0000 </r>
       <r>  -15.1583    1.0000 </r>
       <r>  -14.9355    1.0000 </r>
       <r>  -14.4787    1.0000 </r>
       <r>  -14.4210    1.0000 </r>
       <r>  -14.3837    1.0000 </r>
       <r>  -14.1894    1.0000 </r>
       <r>  -14.1114    1.0000 </r>
       <r>  -14.0819    1.0000 </r>
       <r>  -14.0177    1.0000 </r>
       <r>  -13.9689    1.0000 </r>
       <r>  -13.8465    1.0000 </r>
       <r>  -13.8357    1.0000 </r>
       <r>  -13.7330    1.0000 </r>
       <r>  -13.6470    1.0000 </r>
       <r>  -13.3457    1.0000 </r>
       <r>  -13.2758    1.0000 </r>
       <r>  -13.1851    1.0000 </r>
       <r>   -7.6566    1.0000 </r>
       <r>   -7.4541    1.0000 </r>
       <r>   -7.3489    1.0000 </r>
       <r>   -6.9291    1.0000 </r>
       <r>   -6.8616    1.0000 </r>
       <r>   -6.7262    1.0000 </r>
       <r>   -6.6489    1.0000 </r>
       <r>   -6.5219    1.0000 </r>
       <r>   -6.4897    1.0000 </r>
       <r>   -6.4163    1.0000 </r>
       <r>   -6.3319    1.0000 </r>
       <r>   -6.2706    1.0000 </r>
       <r>   -6.2012    1.0000 </r>
       <r>   -6.1546    1.0000 </r>
       <r>   -6.0760    1.0000 </r>
       <r>   -5.8564    1.0000 </r>
       <r>   -5.7832    1.0000 </r>
       <r>   -5.6897    1.0000 </r>
       <r>   -5.5482    1.0000 </r>
       <r>   -5.4667    1.0000 </r>
       <r>   -5.3773    1.0000 </r>
       <r>   -5.3533    1.0000 </r>
       <r>   -5.2553    1.0000 </r>
       <r>   -5.1885    1.0000 </r>
       <r>   -5.1425    1.0000 </r>
       <r>   -5.0823    1.0000 </r>
       <r>   -5.0484    1.0000 </r>
       <r>   -5.0111    1.0000 </r>
       <r>   -4.9045    1.0000 </r>
       <r>   -4.8737    1.0000 </r>
       <r>   -4.7146    1.0000 </r>
       <r>   -4.5478    1.0000 </r>
       <r>   -4.5046    1.0000 </r>
       <r>   -4.4294    1.0000 </r>
       <r>   -4.3404    1.0000 </r>
       <r>   -4.3036    1.0000 </r>
       <r>   -4.2122    1.0000 </r>
       <r>   -4.1975    1.0000 </r>
       <r>   -4.1109    1.0000 </r>
       <r>   -3.9168    1.0000 </r>
       <r>   -3.8797    1.0000 </r>
       <r>   -3.8037    1.0000 </r>
       <r>   -3.7259    1.0000 </r>
       <r>   -3.6094    1.0000 </r>
       <r>   -3.5085    1.0000 </r>
       <r>   -3.3420    1.0000 </r>
       <r>   -3.2091    1.0000 </r>
       <r>   -3.0412    1.0000 </r>
       <r>   -2.9417    1.0000 </r>
       <r>   -2.8472    1.0000 </r>
       <r>   -2.8016    1.0000 </r>
       <r>   -2.4775    1.0000 </r>
       <r>   -2.4235    1.0000 </r>
       <r>   -2.4012    1.0000 </r>
       <r>   -2.3128    1.0000 </r>
       <r>   -2.1793    1.0000 </r>
       <r>   -2.0732    1.0000 </r>
       <r>   -1.9974    1.0000 </r>
       <r>   -1.9550    1.0000 </r>
       <r>   -1.8638    1.0000 </r>
       <r>   -1.7971    1.0000 </r>
       <r>   -1.6865    1.0000 </r>
       <r>   -1.5703    1.0000 </r>
       <r>   -0.6318    0.0000 </r>
       <r>   -0.5149    0.0000 </r>
       <r>   -0.3745    0.0000 </r>
       <r>   -0.1654    0.0000 </r>
       <r>   -0.0669    0.0000 </r>
       <r>    0.0019    0.0000 </r>
       <r>    0.0402    0.0000 </r>
       <r>    0.1534    0.0000 </r>
       <r>    0.1920    0.0000 </r>
       <r>    0.4570    0.0000 </r>
       <r>    0.5190    0.0000 </r>
       <r>    0.6216    0.0000 </r>
       <r>    0.9669    0.0000 </r>
       <r>    1.0283    0.0000 </r>
       <r>    1.0554    0.0000 </r>
       <r>    1.1231    0.0000 </r>
       <r>    1.1472    0.0000 </r>
       <r>    1.1741    0.0000 </r>
       <r>    1.2458    0.0000 </r>
       <r>    1.3042    0.0000 </r>
       <r>    1.3591    0.0000 </r>
       <r>    1.6026    0.0000 </r>
       <r>    1.6984    0.0000 </r>
      </set>
      <set comment="kpoint 8">
       <r>  -62.5612    1.0000 </r>
       <r>  -62.5358    1.0000 </r>
       <r>  -62.4684    1.0000 </r>
       <r>  -62.4537    1.0000 </r>
       <r>  -62.4298    1.0000 </r>
       <r>  -62.4180    1.0000 </r>
       <r>  -62.4110    1.0000 </r>
       <r>  -62.3481    1.0000 </r>
       <r>  -62.3248    1.0000 </r>
       <r>  -36.9526    1.0000 </r>
       <r>  -36.9106    1.0000 </r>
       <r>  -36.8970    1.0000 </r>
       <r>  -36.8267    1.0000 </r>
       <r>  -36.7846    1.0000 </r>
       <r>  -36.7736    1.0000 </r>
       <r>  -36.7340    1.0000 </r>
       <r>  -36.6927    1.0000 </r>
       <r>  -36.6555    1.0000 </r>
       <r>  -36.6513    1.0000 </r>
       <r>  -36.6248    1.0000 </r>
       <r>  -36.6022    1.0000 </r>
       <r>  -36.5825    1.0000 </r>
       <r>  -36.5740    1.0000 </r>
       <r>  -36.5382    1.0000 </r>
       <r>  -36.5245    1.0000 </r>
       <r>  -36.4998    1.0000 </r>
       <r>  -36.4798    1.0000 </r>
       <r>  -36.4716    1.0000 </r>
       <r>  -36.4513    1.0000 </r>
       <r>  -36.4405    1.0000 </r>
       <r>  -36.4279    1.0000 </r>
       <r>  -36.4196    1.0000 </r>
       <r>  -36.3919    1.0000 </r>
       <r>  -36.3787    1.0000 </r>
       <r>  -36.3587    1.0000 </r>
       <r>  -36.3077    1.0000 </r>
       <r>  -15.4071    1.0000 </r>
       <r>  -15.1583    1.0000 </r>
       <r>  -14.9349    1.0000 </r>
       <r>  -14.4810    1.0000 </r>
       <r>  -14.4228    1.0000 </r>
       <r>  -14.3725    1.0000 </r>
       <r>  -14.1837    1.0000 </r>
       <r>  -14.1393    1.0000 </r>
       <r>  -14.0700    1.0000 </r>
       <r>  -14.0211    1.0000 </r>
       <r>  -13.9753    1.0000 </r>
       <r>  -13.8479    1.0000 </r>
       <r>  -13.8244    1.0000 </r>
       <r>  -13.7257    1.0000 </r>
       <r>  -13.6512    1.0000 </r>
       <r>  -13.3462    1.0000 </r>
       <r>  -13.2768    1.0000 </r>
       <r>  -13.1840    1.0000 </r>
       <r>   -7.6553    1.0000 </r>
       <r>   -7.4638    1.0000 </r>
       <r>   -7.3308    1.0000 </r>
       <r>   -6.9589    1.0000 </r>
       <r>   -6.8433    1.0000 </r>
       <r>   -6.7045    1.0000 </r>
       <r>   -6.6412    1.0000 </r>
       <r>   -6.5257    1.0000 </r>
       <r>   -6.4646    1.0000 </r>
       <r>   -6.3959    1.0000 </r>
       <r>   -6.3566    1.0000 </r>
       <r>   -6.3253    1.0000 </r>
       <r>   -6.2029    1.0000 </r>
       <r>   -6.1434    1.0000 </r>
       <r>   -6.0861    1.0000 </r>
       <r>   -5.8877    1.0000 </r>
       <r>   -5.7832    1.0000 </r>
       <r>   -5.6640    1.0000 </r>
       <r>   -5.5499    1.0000 </r>
       <r>   -5.4745    1.0000 </r>
       <r>   -5.3752    1.0000 </r>
       <r>   -5.3503    1.0000 </r>
       <r>   -5.2331    1.0000 </r>
       <r>   -5.2024    1.0000 </r>
       <r>   -5.1728    1.0000 </r>
       <r>   -5.0747    1.0000 </r>
       <r>   -5.0117    1.0000 </r>
       <r>   -4.9884    1.0000 </r>
       <r>   -4.9701    1.0000 </r>
       <r>   -4.8739    1.0000 </r>
       <r>   -4.6822    1.0000 </r>
       <r>   -4.5347    1.0000 </r>
       <r>   -4.4827    1.0000 </r>
       <r>   -4.4181    1.0000 </r>
       <r>   -4.3791    1.0000 </r>
       <r>   -4.2951    1.0000 </r>
       <r>   -4.2355    1.0000 </r>
       <r>   -4.1658    1.0000 </r>
       <r>   -4.0904    1.0000 </r>
       <r>   -3.9329    1.0000 </r>
       <r>   -3.8763    1.0000 </r>
       <r>   -3.7822    1.0000 </r>
       <r>   -3.7447    1.0000 </r>
       <r>   -3.6613    1.0000 </r>
       <r>   -3.5120    1.0000 </r>
       <r>   -3.3342    1.0000 </r>
       <r>   -3.1862    1.0000 </r>
       <r>   -3.0294    1.0000 </r>
       <r>   -2.9330    1.0000 </r>
       <r>   -2.8721    1.0000 </r>
       <r>   -2.7720    1.0000 </r>
       <r>   -2.4899    1.0000 </r>
       <r>   -2.4566    1.0000 </r>
       <r>   -2.3599    1.0000 </r>
       <r>   -2.2774    1.0000 </r>
       <r>   -2.2070    1.0000 </r>
       <r>   -2.0707    1.0000 </r>
       <r>   -2.0265    1.0000 </r>
       <r>   -1.9324    1.0000 </r>
       <r>   -1.9072    1.0000 </r>
       <r>   -1.7976    1.0000 </r>
       <r>   -1.7258    1.0000 </r>
       <r>   -1.5261    1.0000 </r>
       <r>   -0.6278    0.0000 </r>
       <r>   -0.5032    0.0000 </r>
       <r>   -0.3776    0.0000 </r>
       <r>   -0.1575    0.0000 </r>
       <r>   -0.0646    0.0000 </r>
       <r>    0.0127    0.0000 </r>
       <r>    0.0440    0.0000 </r>
       <r>    0.1535    0.0000 </r>
       <r>    0.1798    0.0000 </r>
       <r>    0.4715    0.0000 </r>
       <r>    0.5060    0.0000 </r>
       <r>    0.6281    0.0000 </r>
       <r>    0.9810    0.0000 </r>
       <r>    1.0171    0.0000 </r>
       <r>    1.0550    0.0000 </r>
       <r>    1.0987    0.0000 </r>
       <r>    1.1450    0.0000 </r>
       <r>    1.1981    0.0000 </r>
       <r>    1.2323    0.0000 </r>
       <r>    1.2838    0.0000 </r>
       <r>    1.3417    0.0000 </r>
       <r>    1.6229    0.0000 </r>
       <r>    1.6972    0.0000 </r>
      </set>
      <set comment="kpoint 9">
       <r>  -62.5613    1.0000 </r>
       <r>  -62.5356    1.0000 </r>
       <r>  -62.4681    1.0000 </r>
       <r>  -62.4545    1.0000 </r>
       <r>  -62.4287    1.0000 </r>
       <r>  -62.4184    1.0000 </r>
       <r>  -62.4113    1.0000 </r>
       <r>  -62.3482    1.0000 </r>
       <r>  -62.3247    1.0000 </r>
       <r>  -36.9482    1.0000 </r>
       <r>  -36.9017    1.0000 </r>
       <r>  -36.8810    1.0000 </r>
       <r>  -36.8267    1.0000 </r>
       <r>  -36.7879    1.0000 </r>
       <r>  -36.7776    1.0000 </r>
       <r>  -36.7587    1.0000 </r>
[...]
       <r>   -5.3470    1.0000 </r>
       <r>   -5.3112    1.0000 </r>
       <r>   -5.1621    1.0000 </r>
       <r>   -5.1216    1.0000 </r>
       <r>   -5.0494    1.0000 </r>
       <r>   -5.0153    1.0000 </r>
       <r>   -4.9487    1.0000 </r>
       <r>   -4.8855    1.0000 </r>
       <r>   -4.8459    1.0000 </r>
       <r>   -4.7024    1.0000 </r>
       <r>   -4.5154    1.0000 </r>
       <r>   -4.4890    1.0000 </r>
       <r>   -4.4125    1.0000 </r>
       <r>   -4.3799    1.0000 </r>
       <r>   -4.2764    1.0000 </r>
       <r>   -4.2571    1.0000 </r>
       <r>   -4.2119    1.0000 </r>
       <r>   -4.1426    1.0000 </r>
       <r>   -4.0070    1.0000 </r>
       <r>   -3.8873    1.0000 </r>
       <r>   -3.8551    1.0000 </r>
       <r>   -3.7693    1.0000 </r>
       <r>   -3.7490    1.0000 </r>
       <r>   -3.3918    1.0000 </r>
       <r>   -3.2915    1.0000 </r>
       <r>   -3.2495    1.0000 </r>
       <r>   -3.2040    1.0000 </r>
       <r>   -2.7300    1.0000 </r>
       <r>   -2.7023    1.0000 </r>
       <r>   -2.6574    1.0000 </r>
       <r>   -2.6307    1.0000 </r>
       <r>   -2.4580    1.0000 </r>
       <r>   -2.3929    1.0000 </r>
       <r>   -2.2798    1.0000 </r>
       <r>   -2.2181    1.0000 </r>
       <r>   -2.1028    1.0000 </r>
       <r>   -1.9845    1.0000 </r>
       <r>   -1.9365    1.0000 </r>
       <r>   -1.8589    1.0000 </r>
       <r>   -1.7810    1.0000 </r>
       <r>   -1.6686    1.0000 </r>
       <r>   -1.6517    1.0000 </r>
       <r>   -0.6248    0.0000 </r>
       <r>   -0.6015    0.0000 </r>
       <r>   -0.3396    0.0000 </r>
       <r>   -0.1446    0.0000 </r>
       <r>   -0.0647    0.0000 </r>
       <r>   -0.0381    0.0000 </r>
       <r>    0.1098    0.0000 </r>
       <r>    0.1531    0.0000 </r>
       <r>    0.1955    0.0000 </r>
       <r>    0.4818    0.0000 </r>
       <r>    0.5958    0.0000 </r>
       <r>    0.6178    0.0000 </r>
       <r>    0.9638    0.0000 </r>
       <r>    1.0503    0.0000 </r>
       <r>    1.0670    0.0000 </r>
       <r>    1.1040    0.0000 </r>
       <r>    1.1419    0.0000 </r>
       <r>    1.1645    0.0000 </r>
       <r>    1.1852    0.0000 </r>
       <r>    1.2411    0.0000 </r>
       <r>    1.3130    0.0000 </r>
       <r>    1.5905    0.0000 </r>
       <r>    1.7768    0.0000 </r>
      </set>
     </set>
    </set>
   </array>
  </eigenvalues>
  <separator name="orbital magnetization" >
   <v name="MAGDIPOLOUT">      0.00000000      0.00000000      0.00000000</v>
  </separator>
  <dos>
   <i name="efermi">     -1.25774037 </i>
   <total>
    <array>
     <dimension dim="1">gridpoints</dimension>
     <dimension dim="2">spin</dimension>
     <field>energy</field>
     <field>total</field>
     <field>integrated</field>
     <set>
      <set comment="spin 1">
       <r>   -65.7941     0.0000     0.0000 </r>
       <r>   -65.5571     0.0000     0.0000 </r>
       <r>   -65.3200     0.0000     0.0000 </r>
       <r>   -65.0830     0.0000     0.0000 </r>
       <r>   -64.8459     0.0000     0.0000 </r>
       <r>   -64.6089     0.0000     0.0000 </r>
       <r>   -64.3718     0.0000     0.0000 </r>
       <r>   -64.1348     0.0000     0.0000 </r>
       <r>   -63.8977     0.0000     0.0000 </r>
       <r>   -63.6607     0.0000     0.0000 </r>
       <r>   -63.4236     0.0000     0.0000 </r>
       <r>   -63.1866     0.0000     0.0000 </r>
       <r>   -62.9495     0.0000     0.0000 </r>
       <r>   -62.7125     0.0001     0.0000 </r>
       <r>   -62.4754    23.8360     5.6503 </r>
       <r>   -62.2384    52.0281    17.9835 </r>
       <r>   -62.0013     0.0697    18.0000 </r>
       <r>   -61.7643     0.0000    18.0000 </r>
       <r>   -61.5272     0.0000    18.0000 </r>
       <r>   -61.2902     0.0000    18.0000 </r>
       <r>   -61.0531     0.0000    18.0000 </r>
       <r>   -60.8161     0.0000    18.0000 </r>
       <r>   -60.5790     0.0000    18.0000 </r>
       <r>   -60.3420     0.0000    18.0000 </r>
       <r>   -60.1050     0.0000    18.0000 </r>
       <r>   -59.8679     0.0000    18.0000 </r>
       <r>   -59.6309     0.0000    18.0000 </r>
       <r>   -59.3938     0.0000    18.0000 </r>
       <r>   -59.1568     0.0000    18.0000 </r>
       <r>   -58.9197     0.0000    18.0000 </r>
       <r>   -58.6827     0.0000    18.0000 </r>
       <r>   -58.4456     0.0000    18.0000 </r>
       <r>   -58.2086     0.0000    18.0000 </r>
       <r>   -57.9715     0.0000    18.0000 </r>
       <r>   -57.7345     0.0000    18.0000 </r>
       <r>   -57.4974     0.0000    18.0000 </r>
       <r>   -57.2604     0.0000    18.0000 </r>
       <r>   -57.0233     0.0000    18.0000 </r>
       <r>   -56.7863     0.0000    18.0000 </r>
       <r>   -56.5492     0.0000    18.0000 </r>
       <r>   -56.3122     0.0000    18.0000 </r>
       <r>   -56.0751     0.0000    18.0000 </r>
       <r>   -55.8381     0.0000    18.0000 </r>
       <r>   -55.6010     0.0000    18.0000 </r>
       <r>   -55.3640     0.0000    18.0000 </r>
       <r>   -55.1269     0.0000    18.0000 </r>
       <r>   -54.8899     0.0000    18.0000 </r>
       <r>   -54.6528     0.0000    18.0000 </r>
       <r>   -54.4158     0.0000    18.0000 </r>
       <r>   -54.1787     0.0000    18.0000 </r>
       <r>   -53.9417     0.0000    18.0000 </r>
       <r>   -53.7046     0.0000    18.0000 </r>
       <r>   -53.4676     0.0000    18.0000 </r>
       <r>   -53.2306     0.0000    18.0000 </r>
       <r>   -52.9935     0.0000    18.0000 </r>
       <r>   -52.7565     0.0000    18.0000 </r>
       <r>   -52.5194     0.0000    18.0000 </r>
       <r>   -52.2824     0.0000    18.0000 </r>
       <r>   -52.0453     0.0000    18.0000 </r>
       <r>   -51.8083     0.0000    18.0000 </r>
       <r>   -51.5712     0.0000    18.0000 </r>
       <r>   -51.3342     0.0000    18.0000 </r>
       <r>   -51.0971     0.0000    18.0000 </r>
       <r>   -50.8601     0.0000    18.0000 </r>
       <r>   -50.6230     0.0000    18.0000 </r>
       <r>   -50.3860     0.0000    18.0000 </r>
       <r>   -50.1489     0.0000    18.0000 </r>
       <r>   -49.9119     0.0000    18.0000 </r>
       <r>   -49.6748     0.0000    18.0000 </r>
       <r>   -49.4378     0.0000    18.0000 </r>
       <r>   -49.2007     0.0000    18.0000 </r>
       <r>   -48.9637     0.0000    18.0000 </r>
       <r>   -48.7266     0.0000    18.0000 </r>
       <r>   -48.4896     0.0000    18.0000 </r>
       <r>   -48.2525     0.0000    18.0000 </r>
       <r>   -48.0155     0.0000    18.0000 </r>
       <r>   -47.7784     0.0000    18.0000 </r>
       <r>   -47.5414     0.0000    18.0000 </r>
       <r>   -47.3043     0.0000    18.0000 </r>
       <r>   -47.0673     0.0000    18.0000 </r>
       <r>   -46.8303     0.0000    18.0000 </r>
       <r>   -46.5932     0.0000    18.0000 </r>
       <r>   -46.3562     0.0000    18.0000 </r>
       <r>   -46.1191     0.0000    18.0000 </r>
       <r>   -45.8821     0.0000    18.0000 </r>
       <r>   -45.6450     0.0000    18.0000 </r>
       <r>   -45.4080     0.0000    18.0000 </r>
       <r>   -45.1709     0.0000    18.0000 </r>
       <r>   -44.9339     0.0000    18.0000 </r>
       <r>   -44.6968     0.0000    18.0000 </r>
       <r>   -44.4598     0.0000    18.0000 </r>
       <r>   -44.2227     0.0000    18.0000 </r>
       <r>   -43.9857     0.0000    18.0000 </r>
       <r>   -43.7486     0.0000    18.0000 </r>
       <r>   -43.5116     0.0000    18.0000 </r>
       <r>   -43.2745     0.0000    18.0000 </r>
       <r>   -43.0375     0.0000    18.0000 </r>
       <r>   -42.8004     0.0000    18.0000 </r>
       <r>   -42.5634     0.0000    18.0000 </r>
       <r>   -42.3263     0.0000    18.0000 </r>
       <r>   -42.0893     0.0000    18.0000 </r>
       <r>   -41.8522     0.0000    18.0000 </r>
       <r>   -41.6152     0.0000    18.0000 </r>
       <r>   -41.3781     0.0000    18.0000 </r>
       <r>   -41.1411     0.0000    18.0000 </r>
       <r>   -40.9040     0.0000    18.0000 </r>
       <r>   -40.6670     0.0000    18.0000 </r>
       <r>   -40.4300     0.0000    18.0000 </r>
       <r>   -40.1929     0.0000    18.0000 </r>
       <r>   -39.9559     0.0000    18.0000 </r>
       <r>   -39.7188     0.0000    18.0000 </r>
       <r>   -39.4818     0.0000    18.0000 </r>
       <r>   -39.2447     0.0000    18.0000 </r>
       <r>   -39.0077     0.0000    18.0000 </r>
       <r>   -38.7706     0.0000    18.0000 </r>
       <r>   -38.5336     0.0000    18.0000 </r>
       <r>   -38.2965     0.0000    18.0000 </r>
       <r>   -38.0595     0.0000    18.0000 </r>
       <r>   -37.8224     0.0000    18.0000 </r>
       <r>   -37.5854     0.0000    18.0000 </r>
       <r>   -37.3483     0.0000    18.0000 </r>
       <r>   -37.1113     0.0000    18.0000 </r>
       <r>   -36.8742    21.2685    23.0417 </r>
       <r>   -36.6372    63.6985    38.1413 </r>
       <r>   -36.4001   110.0493    64.2283 </r>
       <r>   -36.1631    32.7852    71.9999 </r>
       <r>   -35.9260     0.0003    72.0000 </r>
       <r>   -35.6890     0.0000    72.0000 </r>
       <r>   -35.4519     0.0000    72.0000 </r>
       <r>   -35.2149     0.0000    72.0000 </r>
       <r>   -34.9778     0.0000    72.0000 </r>
       <r>   -34.7408     0.0000    72.0000 </r>
       <r>   -34.5037     0.0000    72.0000 </r>
       <r>   -34.2667     0.0000    72.0000 </r>
       <r>   -34.0297     0.0000    72.0000 </r>
       <r>   -33.7926     0.0000    72.0000 </r>
       <r>   -33.5556     0.0000    72.0000 </r>
       <r>   -33.3185     0.0000    72.0000 </r>
       <r>   -33.0815     0.0000    72.0000 </r>
       <r>   -32.8444     0.0000    72.0000 </r>
       <r>   -32.6074     0.0000    72.0000 </r>
       <r>   -32.3703     0.0000    72.0000 </r>
       <r>   -32.1333     0.0000    72.0000 </r>
       <r>   -31.8962     0.0000    72.0000 </r>
       <r>   -31.6592     0.0000    72.0000 </r>
       <r>   -31.4221     0.0000    72.0000 </r>
       <r>   -31.1851     0.0000    72.0000 </r>
       <r>   -30.9480     0.0000    72.0000 </r>
       <r>   -30.7110     0.0000    72.0000 </r>
       <r>   -30.4739     0.0000    72.0000 </r>
       <r>   -30.2369     0.0000    72.0000 </r>
       <r>   -29.9998     0.0000    72.0000 </r>
       <r>   -29.7628     0.0000    72.0000 </r>
       <r>   -29.5257     0.0000    72.0000 </r>
       <r>   -29.2887     0.0000    72.0000 </r>
       <r>   -29.0516     0.0000    72.0000 </r>
       <r>   -28.8146     0.0000    72.0000 </r>
       <r>   -28.5775     0.0000    72.0000 </r>
       <r>   -28.3405     0.0000    72.0000 </r>
       <r>   -28.1034     0.0000    72.0000 </r>
       <r>   -27.8664     0.0000    72.0000 </r>
       <r>   -27.6294     0.0000    72.0000 </r>
       <r>   -27.3923     0.0000    72.0000 </r>
       <r>   -27.1553     0.0000    72.0000 </r>
       <r>   -26.9182     0.0000    72.0000 </r>
       <r>   -26.6812     0.0000    72.0000 </r>
       <r>   -26.4441     0.0000    72.0000 </r>
       <r>   -26.2071     0.0000    72.0000 </r>
       <r>   -25.9700     0.0000    72.0000 </r>
       <r>   -25.7330     0.0000    72.0000 </r>
       <r>   -25.4959     0.0000    72.0000 </r>
       <r>   -25.2589     0.0000    72.0000 </r>
       <r>   -25.0218     0.0000    72.0000 </r>
       <r>   -24.7848     0.0000    72.0000 </r>
       <r>   -24.5477     0.0000    72.0000 </r>
       <r>   -24.3107     0.0000    72.0000 </r>
       <r>   -24.0736     0.0000    72.0000 </r>
       <r>   -23.8366     0.0000    72.0000 </r>
       <r>   -23.5995     0.0000    72.0000 </r>
       <r>   -23.3625     0.0000    72.0000 </r>
       <r>   -23.1254     0.0000    72.0000 </r>
       <r>   -22.8884     0.0000    72.0000 </r>
       <r>   -22.6513     0.0000    72.0000 </r>
       <r>   -22.4143     0.0000    72.0000 </r>
       <r>   -22.1772     0.0000    72.0000 </r>
       <r>   -21.9402     0.0000    72.0000 </r>
       <r>   -21.7031     0.0000    72.0000 </r>
       <r>   -21.4661     0.0000    72.0000 </r>
       <r>   -21.2290     0.0000    72.0000 </r>
       <r>   -20.9920     0.0000    72.0000 </r>
       <r>   -20.7550     0.0000    72.0000 </r>
       <r>   -20.5179     0.0000    72.0000 </r>
       <r>   -20.2809     0.0000    72.0000 </r>
       <r>   -20.0438     0.0000    72.0000 </r>
       <r>   -19.8068     0.0000    72.0000 </r>
       <r>   -19.5697     0.0000    72.0000 </r>
       <r>   -19.3327     0.0000    72.0000 </r>
       <r>   -19.0956     0.0000    72.0000 </r>
       <r>   -18.8586     0.0000    72.0000 </r>
       <r>   -18.6215     0.0000    72.0000 </r>
       <r>   -18.3845     0.0000    72.0000 </r>
       <r>   -18.1474     0.0000    72.0000 </r>
       <r>   -17.9104     0.0000    72.0000 </r>
       <r>   -17.6733     0.0000    72.0000 </r>
       <r>   -17.4363     0.0000    72.0000 </r>
       <r>   -17.1992     0.0000    72.0000 </r>
       <r>   -16.9622     0.0000    72.0000 </r>
       <r>   -16.7251     0.0000    72.0000 </r>
       <r>   -16.4881     0.0000    72.0000 </r>
       <r>   -16.2510     0.0000    72.0000 </r>
       <r>   -16.0140     0.0000    72.0000 </r>
       <r>   -15.7769     0.0219    72.0052 </r>
       <r>   -15.5399     3.6080    72.8605 </r>
       <r>   -15.3028     4.5869    73.9478 </r>
       <r>   -15.0658     5.0610    75.1475 </r>
       <r>   -14.8287     6.2520    76.6295 </r>
       <r>   -14.5917     6.9239    78.2708 </r>
       <r>   -14.3547    21.3121    83.3228 </r>
       <r>   -14.1176    20.1367    88.0962 </r>
       <r>   -13.8806    26.3621    94.3453 </r>
       <r>   -13.6435    25.4497   100.3781 </r>
       <r>   -13.4065    12.6102   103.3673 </r>
       <r>   -13.1694    15.7753   107.1068 </r>
       <r>   -12.9324     3.7680   108.0000 </r>
       <r>   -12.6953     0.0000   108.0000 </r>
       <r>   -12.4583     0.0000   108.0000 </r>
       <r>   -12.2212     0.0000   108.0000 </r>
       <r>   -11.9842     0.0000   108.0000 </r>
       <r>   -11.7471     0.0000   108.0000 </r>
       <r>   -11.5101     0.0000   108.0000 </r>
       <r>   -11.2730     0.0000   108.0000 </r>
       <r>   -11.0360     0.0000   108.0000 </r>
       <r>   -10.7989     0.0000   108.0000 </r>
       <r>   -10.5619     0.0000   108.0000 </r>
       <r>   -10.3248     0.0000   108.0000 </r>
       <r>   -10.0878     0.0000   108.0000 </r>
       <r>    -9.8507     0.0000   108.0000 </r>
       <r>    -9.6137     0.0000   108.0000 </r>
       <r>    -9.3766     0.0000   108.0000 </r>
       <r>    -9.1396     0.0000   108.0000 </r>
       <r>    -8.9025     0.0000   108.0000 </r>
       <r>    -8.6655     0.0000   108.0000 </r>
       <r>    -8.4284     0.0000   108.0000 </r>
       <r>    -8.1914     0.0000   108.0000 </r>
       <r>    -7.9544     0.0000   108.0000 </r>
       <r>    -7.7173     0.5402   108.1281 </r>
       <r>    -7.4803     6.4766   109.6633 </r>
       <r>    -7.2432     8.9583   111.7869 </r>
       <r>    -7.0062    12.4490   114.7379 </r>
       <r>    -6.7691    17.4595   118.8766 </r>
       <r>    -6.5321    18.6893   123.3069 </r>
       <r>    -6.2950    33.5631   131.2630 </r>
       <r>    -6.0580    25.6463   137.3424 </r>
       <r>    -5.8209    15.8828   141.1074 </r>
       <r>    -5.5839    19.0891   145.6324 </r>
       <r>    -5.3468    22.1465   150.8822 </r>
       <r>    -5.1098    35.5250   159.3033 </r>
       <r>    -4.8727    25.5822   165.3675 </r>
       <r>    -4.6357    19.4394   169.9756 </r>
       <r>    -4.3986    25.5985   176.0437 </r>
       <r>    -4.1616    30.8041   183.3457 </r>
       <r>    -3.9245    17.9598   187.6031 </r>
       <r>    -3.6875    26.0770   193.7846 </r>
       <r>    -3.4504    14.8922   197.3148 </r>
       <r>    -3.2134    13.7649   200.5777 </r>
       <r>    -2.9763    12.7608   203.6026 </r>
       <r>    -2.7393    21.8735   208.7877 </r>
       <r>    -2.5022    14.8401   212.3055 </r>
       <r>    -2.2652    22.2896   217.5892 </r>
       <r>    -2.0281    21.1070   222.5926 </r>
       <r>    -1.7911    25.2883   228.5871 </r>
       <r>    -1.5541    18.1469   232.8888 </r>
       <r>    -1.3170     4.6876   234.0000 </r>
       <r>    -1.0800     0.0000   234.0000 </r>
       <r>    -0.8429     0.0012   234.0003 </r>
       <r>    -0.6059     7.6370   235.8106 </r>
       <r>    -0.3688    10.2581   238.2423 </r>
       <r>    -0.1318    17.4911   242.3885 </r>
       <r>     0.1053    26.1654   248.5910 </r>
       <r>     0.3423    15.7426   252.3228 </r>
       <r>     0.5794    15.1789   255.9209 </r>
       <r>     0.8164     9.9413   258.2775 </r>
       <r>     1.0535    22.1616   263.5308 </r>
       <r>     1.2905    34.6237   271.7383 </r>
       <r>     1.5276    14.7352   275.2313 </r>
       <r>     1.7646    12.4053   278.1719 </r>
       <r>     2.0017     5.8656   279.5623 </r>
       <r>     2.2387     1.8463   280.0000 </r>
       <r>     2.4758     0.0000   280.0000 </r>
       <r>     2.7128     0.0000   280.0000 </r>
       <r>     2.9499     0.0000   280.0000 </r>
       <r>     3.1869     0.0000   280.0000 </r>
       <r>     3.4240     0.0000   280.0000 </r>
       <r>     3.6610     0.0000   280.0000 </r>
       <r>     3.8981     0.0000   280.0000 </r>
       <r>     4.1351     0.0000   280.0000 </r>
       <r>     4.3722     0.0000   280.0000 </r>
       <r>     4.6092     0.0000   280.0000 </r>
       <r>     4.8463     0.0000   280.0000 </r>
       <r>     5.0833     0.0000   280.0000 </r>
       <r>     5.3203     0.0000   280.0000 </r>
      </set>
     </set>
    </array>
   </total>
  </dos>
 </calculation>
 <structure name="finalpos" >
  <crystal>
   <varray name="basis" >
    <v>       9.56424100       0.00000000       0.00000000 </v>
    <v>      -4.78212000       8.28287600       0.00000000 </v>
    <v>      -0.00000000       0.00000000      18.15827300 </v>
   </varray>
   <i name="volume">   1438.48789588 </i>
   <varray name="rec_basis" >
    <v>       0.10455613       0.06036550       0.00000000 </v>
    <v>       0.00000000       0.12073101      -0.00000000 </v>
    <v>       0.00000000      -0.00000000       0.05507132 </v>
   </varray>
  </crystal>
  <varray name="positions" >
   <v>       0.03649080       0.01801991       0.49529974 </v>
   <v>       0.30908334       0.34569140       0.49889663 </v>
   <v>       0.65895487       0.02076512       0.50179097 </v>
   <v>       0.32412205       0.96797874       0.49727116 </v>
   <v>       0.36188646       0.67883960       0.49942027 </v>
   <v>       0.69990222       0.34455430       0.50044017 </v>
   <v>       0.97830471       0.30151804       0.49936334 </v>
   <v>       0.65036377       0.63711773       0.50177667 </v>
   <v>       0.98579094       0.68793346       0.49853587 </v>
   <v>       0.54635735       0.11708250       0.58446328 </v>
   <v>       0.22525435       0.11499675       0.58564431 </v>
   <v>       0.10610097       0.22680634       0.40833655 </v>
   <v>       0.20494983       0.44677893       0.58632136 </v>
   <v>       0.10699413       0.55501209       0.42729735 </v>
   <v>       0.21798665       0.76633349       0.58460490 </v>
   <v>       0.11375911       0.88549678       0.40791687 </v>
   <v>       0.45858003       0.23805010       0.43623241 </v>
   <v>       0.45238459       0.87862307       0.41311924 </v>
   <v>       0.54608320       0.43034807       0.58589888 </v>
   <v>       0.56061005       0.77649857       0.58679717 </v>
   <v>       0.44717777       0.55861522       0.40939753 </v>
   <v>       0.88545288       0.09354919       0.58356742 </v>
   <v>       0.76415913       0.21206361       0.40670910 </v>
   <v>       0.90952986       0.45755169       0.58554404 </v>
   <v>       0.77751420       0.55723606       0.41198197 </v>
   <v>       0.88775229       0.78978226       0.58660330 </v>
   <v>       0.77469549       0.88793983       0.43112191 </v>
  </varray>
 </structure>
</modeling>
