<?xml version="1.0" encoding="ISO-8859-1"?>
<modeling>
 <generator>
  <i name="program" type="string">vasp </i>
  <i name="version" type="string">6.2.0  </i>
  <i name="subversion" type="string">18Jan21 (build Mar 25 2021 14:28:09) complex                          parallel </i>
  <i name="platform" type="string">LinuxGNU </i>
  <i name="date" type="string">2021 12 20 </i>
  <i name="time" type="string">09:49:40 </i>
 </generator>
 <incar>
  <i type="string" name="SYSTEM">benzene</i>
  <i type="int" name="ISTART">     0</i>
  <i type="string" name="PREC">Accurate</i>
  <i type="string" name="ALGO">Normal</i>
  <i type="int" name="NELM">   200</i>
  <i type="int" name="IBRION">    -1</i>
  <i name="EDIFF">      0.00000100</i>
  <i type="int" name="NSW">     0</i>
  <i name="ENCUT">    600.00000000</i>
  <i type="logical" name="LREAL"> F  </i>
  <i type="int" name="ISMEAR">     0</i>
  <i name="SIGMA">      0.05000000</i>
  <i type="logical" name="LWAVE"> F  </i>
  <i type="logical" name="LCHARG"> T  </i>
  <i type="string" name="GGA">PE</i>
 </incar>
 <primitive_cell>
  <structure name="primitive_cell" >
   <crystal>
    <varray name="basis" >
     <v>      10.58354422       0.00000000       0.00000000 </v>
     <v>       0.00000000      10.58354422       0.00000000 </v>
     <v>       0.00000000       0.00000000      10.58354422 </v>
    </varray>
    <i name="volume">   1185.47769178 </i>
    <varray name="rec_basis" >
     <v>       0.09448631       0.00000000       0.00000000 </v>
     <v>       0.00000000       0.09448631       0.00000000 </v>
     <v>       0.00000000       0.00000000       0.09448631 </v>
    </varray>
   </crystal>
   <varray name="positions" >
    <v>       0.49677470       0.62858365       0.50103255 </v>
    <v>       0.38330280       0.56374405       0.49992185 </v>
    <v>       0.38318045       0.43036340       0.50052845 </v>
    <v>       0.49987715       0.36791950       0.49934115 </v>
    <v>       0.61714885       0.43705400       0.50149590 </v>
    <v>       0.61601530       0.56874815       0.49880370 </v>
    <v>       0.49987680       0.73345420       0.49504560 </v>
    <v>       0.29578580       0.61199915       0.51118245 </v>
    <v>       0.29068045       0.39743475       0.48790870 </v>
    <v>       0.50366165       0.26415570       0.50563045 </v>
    <v>       0.70912285       0.38336025       0.50060120 </v>
    <v>       0.70457325       0.61318325       0.49850795 </v>
   </varray>
  </structure>
  <varray name="primitive_index" >
   <v type="int" >        1 </v>
   <v type="int" >        2 </v>
   <v type="int" >        3 </v>
   <v type="int" >        4 </v>
   <v type="int" >        5 </v>
   <v type="int" >        6 </v>
   <v type="int" >        7 </v>
   <v type="int" >        8 </v>
   <v type="int" >        9 </v>
   <v type="int" >       10 </v>
   <v type="int" >       11 </v>
   <v type="int" >       12 </v>
  </varray>
 </primitive_cell>
 <kpoints>
  <generation param="Gamma">
   <v type="int" name="divisions">       1        1        1 </v>
   <v name="usershift">      0.00000000       0.00000000       0.00000000 </v>
   <v name="genvec1">      1.00000000       0.00000000       0.00000000 </v>
   <v name="genvec2">      0.00000000       1.00000000       0.00000000 </v>
   <v name="genvec3">      0.00000000       0.00000000       1.00000000 </v>
   <v name="shift">      0.00000000       0.00000000       0.00000000 </v>
  </generation>
  <varray name="kpointlist" >
   <v>       0.00000000       0.00000000       0.00000000 </v>
  </varray>
  <varray name="weights" >
   <v>       1.00000000 </v>
  </varray>
 </kpoints>
 <parameters>
  <separator name="general" >
   <i type="string" name="SYSTEM">benzene</i>
   <i type="logical" name="LCOMPAT"> F  </i>
  </separator>
  <separator name="electronic" >
   <i type="string" name="PREC">accura</i>
   <i name="ENMAX">    600.00000000</i>
   <i name="ENAUG">    644.87300000</i>
   <i name="EDIFF">      0.00000100</i>
   <i type="int" name="IALGO">    38</i>
   <i type="int" name="IWAVPR">    10</i>
   <i type="int" name="NBANDS">    24</i>
   <i type="int" name="NBANDSLOW">    -1</i>
   <i type="int" name="NBANDSHIGH">    -1</i>
   <i name="NELECT">     30.00000000</i>
   <i type="int" name="TURBO">     0</i>
   <i type="int" name="IRESTART">     0</i>
   <i type="int" name="NREBOOT">     0</i>
   <i type="int" name="NMIN">     0</i>
   <i name="EREF">      0.00000000</i>
   <separator name="electronic smearing" >
    <i type="int" name="ISMEAR">     0</i>
    <i name="SIGMA">      0.05000000</i>
    <i name="KSPACING">      0.50000000</i>
    <i type="logical" name="KGAMMA"> T  </i>
    <i type="logical" name="KBLOWUP"> T  </i>
   </separator>
   <separator name="electronic projectors" >
    <i type="logical" name="LREAL"> F  </i>
    <v name="ROPT">      0.00000000      0.00000000</v>
    <i type="int" name="LMAXPAW">  -100</i>
    <i type="int" name="LMAXMIX">     2</i>
    <i type="logical" name="NLSPLINE"> F  </i>
   </separator>
   <separator name="electronic startup" >
    <i type="int" name="ISTART">     0</i>
    <i type="int" name="ICHARG">     2</i>
    <i type="int" name="INIWAV">     1</i>
   </separator>
   <separator name="electronic spin" >
    <i type="int" name="ISPIN">     1</i>
    <i type="logical" name="LNONCOLLINEAR"> F  </i>
    <v name="MAGMOM">      1.00000000      1.00000000      1.00000000      1.00000000      1.00000000      1.00000000      1.00000000      1.00000000      1.00000000      1.00000000      1.00000000      1.00000000</v>
    <i name="NUPDOWN">     -1.00000000</i>
    <i type="logical" name="LSORBIT"> F  </i>
    <v name="SAXIS">      0.00000000      0.00000000      1.00000000</v>
    <i type="logical" name="LSPIRAL"> F  </i>
    <v name="QSPIRAL">      0.00000000      0.00000000      0.00000000</v>
    <i type="logical" name="LZEROZ"> F  </i>
   </separator>
   <separator name="electronic exchange-correlation" >
    <i type="logical" name="LASPH"> F  </i>
    <i type="logical" name="LMETAGGA"> F  </i>
   </separator>
   <separator name="electronic convergence" >
    <i type="int" name="NELM">   200</i>
    <i type="int" name="NELMDL">    -5</i>
    <i type="int" name="NELMIN">     2</i>
    <i name="ENINI">    600.00000000</i>
    <separator name="electronic convergence detail" >
     <i type="logical" name="LDIAG"> T  </i>
     <i type="logical" name="LSUBROT"> F  </i>
     <i name="WEIMIN">      0.00000000</i>
     <i name="EBREAK">      0.00000001</i>
     <i name="DEPER">      0.30000000</i>
     <i type="int" name="NRMM">     4</i>
     <i name="TIME">      0.40000000</i>
    </separator>
   </separator>
   <separator name="electronic mixer" >
    <i name="AMIX">      0.40000000</i>
    <i name="BMIX">      1.00000000</i>
    <i name="AMIN">      0.10000000</i>
    <i name="AMIX_MAG">      1.60000000</i>
    <i name="BMIX_MAG">      1.00000000</i>
    <separator name="electronic mixer details" >
     <i type="int" name="IMIX">     4</i>
     <i type="logical" name="MIXFIRST"> F  </i>
     <i type="int" name="MAXMIX">   -45</i>
     <i name="WC">    100.00000000</i>
     <i type="int" name="INIMIX">     1</i>
     <i type="int" name="MIXPRE">     1</i>
     <i type="int" name="MREMOVE">     5</i>
    </separator>
   </separator>
   <separator name="electronic dipolcorrection" >
    <i type="logical" name="LDIPOL"> F  </i>
    <i type="logical" name="LMONO"> F  </i>
    <i type="int" name="IDIPOL">     0</i>
    <i name="EPSILON">      1.00000000</i>
    <v name="DIPOL">   -100.00000000   -100.00000000   -100.00000000</v>
    <i name="EFIELD">      0.00000000</i>
   </separator>
  </separator>
  <separator name="grids" >
   <i type="int" name="NGX">    90</i>
   <i type="int" name="NGY">    90</i>
   <i type="int" name="NGZ">    90</i>
   <i type="int" name="NGXF">   180</i>
   <i type="int" name="NGYF">   180</i>
   <i type="int" name="NGZF">   180</i>
   <i type="logical" name="ADDGRID"> F  </i>
  </separator>
  <separator name="ionic" >
   <i type="int" name="NSW">     0</i>
   <i type="int" name="IBRION">    -1</i>
   <i type="int" name="MDALGO">     0</i>
   <i type="int" name="ISIF">     2</i>
   <i name="PSTRESS">      0.00000000</i>
   <i name="EDIFFG">      0.00001000</i>
   <i type="int" name="NFREE">     0</i>
   <i name="POTIM">      0.50000000</i>
   <i name="SMASS">     -3.00000000</i>
   <i name="SCALEE">      1.00000000</i>
  </separator>
  <separator name="ionic md" >
   <i name="TEBEG">      0.00010000</i>
   <i name="TEEND">      0.00010000</i>
   <i type="int" name="NBLOCK">     1</i>
   <i type="int" name="KBLOCK">     1</i>
   <i type="int" name="NPACO">   256</i>
   <i name="APACO">     16.00000000</i>
  </separator>
  <separator name="symmetry" >
   <i type="int" name="ISYM">     2</i>
   <i name="SYMPREC">      0.00001000</i>
  </separator>
  <separator name="dos" >
   <i type="int" name="LORBIT">     0</i>
   <v name="RWIGS">     -1.00000000     -1.00000000</v>
   <i type="int" name="NEDOS">   301</i>
   <i name="EMIN">     10.00000000</i>
   <i name="EMAX">    -10.00000000</i>
   <i name="EFERMI">      0.00000000</i>
  </separator>
  <separator name="writing" >
   <i type="int" name="NWRITE">     2</i>
   <i type="logical" name="LWAVE"> F  </i>
   <i type="logical" name="LDOWNSAMPLE"> F  </i>
   <i type="logical" name="LCHARG"> T  </i>
   <i type="logical" name="LPARD"> F  </i>
   <i type="logical" name="LVTOT"> F  </i>
   <i type="logical" name="LVHAR"> F  </i>
   <i type="logical" name="LELF"> F  </i>
   <i type="logical" name="LOPTICS"> F  </i>
   <v name="STM">      0.00000000      0.00000000      0.00000000      0.00000000      0.00000000      0.00000000      0.00000000</v>
  </separator>
  <separator name="performance" >
   <i type="int" name="NPAR">     4</i>
   <i type="int" name="NSIM">     4</i>
   <i type="int" name="NBLK">    -1</i>
   <i type="logical" name="LPLANE"> T  </i>
   <i type="logical" name="LSCALAPACK"> T  </i>
   <i type="logical" name="LSCAAWARE"> F  </i>
   <i type="logical" name="LSCALU"> F  </i>
   <i type="logical" name="LASYNC"> F  </i>
   <i type="logical" name="LORBITALREAL"> F  </i>
  </separator>
  <separator name="miscellaneous" >
   <i type="int" name="IDIOT">     3</i>
   <i type="int" name="PHON_NSTRUCT">    -1</i>
   <i type="logical" name="LMUSIC"> F  </i>
   <v name="POMASS">     12.01100000      1.00000000</v>
   <v name="DARWINR">      0.00000000      0.00000000</v>
   <v name="DARWINV">      1.00000000      1.00000000</v>
   <i type="logical" name="LCORR"> T  </i>
  </separator>
  <i type="logical" name="GGA_COMPAT"> T  </i>
  <i type="logical" name="LBERRY"> F  </i>
  <i type="int" name="ICORELEVEL">     0</i>
  <i type="logical" name="LDAU"> F  </i>
  <i type="int" name="I_CONSTRAINED_M">     0</i>
  <separator name="electronic exchange-correlation" >
   <i type="string" name="GGA">PE</i>
   <i type="int" name="VOSKOWN">     0</i>
   <i type="logical" name="LHFCALC"> F  </i>
   <i type="string" name="PRECFOCK"></i>
   <i type="logical" name="LSYMGRAD"> F  </i>
   <i type="logical" name="LHFONE"> F  </i>
   <i type="logical" name="LRHFCALC"> F  </i>
   <i type="logical" name="LTHOMAS"> F  </i>
   <i type="logical" name="LMODELHF"> F  </i>
   <i type="logical" name="LFOCKACE"> F  </i>
   <i name="ENCUT4O">     -1.00000000</i>
   <i type="int" name="EXXOEP">     0</i>
   <i type="int" name="FOURORBIT">     0</i>
   <i name="AEXX">      0.00000000</i>
   <i name="HFALPHA">      0.00000000</i>
   <i name="MCALPHA">      0.00000000</i>
   <i name="ALDAX">      1.00000000</i>
   <i name="AGGAX">      1.00000000</i>
   <i name="ALDAC">      1.00000000</i>
   <i name="AGGAC">      1.00000000</i>
   <i type="int" name="NKREDX">     1</i>
   <i type="int" name="NKREDY">     1</i>
   <i type="int" name="NKREDZ">     1</i>
   <i type="logical" name="SHIFTRED"> F  </i>
   <i type="logical" name="ODDONLY"> F  </i>
   <i type="logical" name="EVENONLY"> F  </i>
   <i type="int" name="LMAXFOCK">     0</i>
   <i type="int" name="NMAXFOCKAE">     0</i>
   <i type="logical" name="LFOCKAEDFT"> F  </i>
   <i name="HFSCREEN">      0.00000000</i>
   <i name="HFSCREENC">      0.00000000</i>
   <i type="int" name="NBANDSGWLOW">     0</i>
  </separator>
  <separator name="vdW DFT" >
   <i type="logical" name="LUSE_VDW"> F  </i>
   <i name="Zab_VDW">     -0.84910000</i>
   <i name="PARAM1">      0.12340000</i>
   <i name="PARAM2">      1.00000000</i>
   <i name="PARAM3">      0.00000000</i>
  </separator>
  <separator name="model GW" >
   <i type="int" name="MODEL_GW">     0</i>
   <i name="MODEL_EPS0">     59.27388459</i>
   <i name="MODEL_ALPHA">      1.00000000</i>
  </separator>
  <separator name="linear response parameters" >
   <i type="logical" name="LEPSILON"> F  </i>
   <i type="logical" name="LRPA"> F  </i>
   <i type="logical" name="LNABLA"> F  </i>
   <i type="logical" name="LVEL"> F  </i>
   <i type="int" name="KINTER">     0</i>
   <i name="CSHIFT">      0.10000000</i>
   <i name="OMEGAMAX">     -1.00000000</i>
   <i name="DEG_THRESHOLD">      0.00200000</i>
   <i name="RTIME">     -0.10000000</i>
   <i name="WPLASMAI">      0.00000000</i>
   <v name="DFIELD">      0.00000000      0.00000000      0.00000000</v>
   <v name="WPLASMA">      0.00000000      0.00000000      0.00000000      0.00000000      0.00000000      0.00000000      0.00000000      0.00000000      0.00000000</v>
  </separator>
  <separator name="orbital magnetization" >
   <i type="logical" name="NUCIND"> F  </i>
   <v name="MAGPOS">      0.00000000      0.00000000      0.00000000</v>
   <i type="logical" name="LNICSALL"> T  </i>
   <i type="logical" name="ORBITALMAG"> F  </i>
   <i type="logical" name="LMAGBLOCH"> F  </i>
   <i type="logical" name="LCHIMAG"> F  </i>
   <i type="logical" name="LGAUGE"> T  </i>
   <i type="int" name="MAGATOM">     0</i>
   <v name="MAGDIPOL">      0.00000000      0.00000000      0.00000000</v>
   <v name="AVECCONST">      0.00000000      0.00000000      0.00000000</v>
  </separator>
  <separator name="response functions" >
   <i type="logical" name="LFINITE_TEMPERATURE"> F  </i>
   <i type="logical" name="LADDER"> F  </i>
   <i type="logical" name="LRPAFORCE"> F  </i>
   <i type="logical" name="LFXC"> F  </i>
   <i type="logical" name="LHARTREE"> T  </i>
   <i type="int" name="IBSE">     0</i>
   <v type="int" name="KPOINT">    -1     0     0     0</v>
   <i type="logical" name="LTCTC"> F  </i>
   <i type="logical" name="LTCTE"> F  </i>
   <i type="logical" name="LTETE"> F  </i>
   <i type="logical" name="LTRIPLET"> F  </i>
   <i type="logical" name="LFXCEPS"> F  </i>
   <i type="logical" name="LFXHEG"> F  </i>
   <i type="int" name="NATURALO">     2</i>
   <i type="logical" name="LHOLEGF"> F  </i>
   <i type="logical" name="L2ORDER"> F  </i>
   <i type="logical" name="LDMP1"> F  </i>
   <i type="logical" name="LMP2LT"> F  </i>
   <i type="logical" name="LSMP2LT"> F  </i>
   <i type="logical" name="LGWLF"> F  </i>
   <i name="ENCUTGW">     -2.00000000</i>
   <i name="ENCUTGWSOFT">     -2.00000000</i>
   <i name="ENCUTLF">     -1.00000000</i>
   <i type="logical" name="LESF_SPLINES"> F  </i>
   <i type="int" name="LMAXMP2">    -1</i>
   <i name="SCISSOR">      0.00000000</i>
   <i type="int" name="NOMEGA">     0</i>
   <i type="int" name="NOMEGAR">     0</i>
   <i type="int" name="NBANDSGW">    -1</i>
   <i type="int" name="NBANDSO">    -1</i>
   <i type="int" name="NBANDSV">    -1</i>
   <i type="int" name="NELM">   200</i>
   <i type="int" name="NELMHF">     1</i>
   <i type="int" name="DIM">     3</i>
   <i type="int" name="IESPILON">     4</i>
   <i type="int" name="ANTIRES">     0</i>
   <i name="OMEGAMAX">    -30.00000000</i>
   <i name="OMEGAMIN">    -30.00000000</i>
   <i name="OMEGATL">   -200.00000000</i>
   <i type="int" name="OMEGAGRID">     0</i>
   <i name="CSHIFT">     -0.10000000</i>
   <i type="logical" name="LSELFENERGY"> F  </i>
   <i type="logical" name="LSPECTRAL"> F  </i>
   <i type="logical" name="LSPECTRALGW"> F  </i>
   <i type="logical" name="LSINGLES"> F  </i>
   <i type="logical" name="LFERMIGW"> F  </i>
   <i type="logical" name="ODDONLYGW"> F  </i>
   <i type="logical" name="EVENONLYGW"> F  </i>
   <i type="int" name="NKREDLFX">     1</i>
   <i type="int" name="NKREDLFY">     1</i>
   <i type="int" name="NKREDLFZ">     1</i>
   <i type="int" name="MAXMEM">  2800</i>
   <i type="int" name="TELESCOPE">     0</i>
   <i type="int" name="NTAUPAR">    -1</i>
   <i type="int" name="NOMEGAPAR">    -1</i>
   <i name="DAMP_NEWTON">      0.80000001</i>
   <i name="LAMBDA">      1.00000000</i>
  </separator>
  <separator name="External order field" >
   <i name="OFIELD_KAPPA">      0.00000000</i>
   <v name="OFIELD_K">      0.00000000      0.00000000      0.00000000</v>
   <i name="OFIELD_Q6_NEAR">      0.00000000</i>
   <i name="OFIELD_Q6_FAR">      0.00000000</i>
   <i name="OFIELD_A">      0.00000000</i>
  </separator>
 </parameters>
 <atominfo>
  <atoms>      12 </atoms>
  <types>       2 </types>
  <array name="atoms" >
   <dimension dim="1">ion</dimension>
   <field type="string">element</field>
   <field type="int">atomtype</field>
   <set>
    <rc><c>C </c><c>   1</c></rc>
    <rc><c>C </c><c>   1</c></rc>
    <rc><c>C </c><c>   1</c></rc>
    <rc><c>C </c><c>   1</c></rc>
    <rc><c>C </c><c>   1</c></rc>
    <rc><c>C </c><c>   1</c></rc>
    <rc><c>H </c><c>   2</c></rc>
    <rc><c>H </c><c>   2</c></rc>
    <rc><c>H </c><c>   2</c></rc>
    <rc><c>H </c><c>   2</c></rc>
    <rc><c>H </c><c>   2</c></rc>
    <rc><c>H </c><c>   2</c></rc>
   </set>
  </array>
  <array name="atomtypes" >
   <dimension dim="1">type</dimension>
   <field type="int">atomspertype</field>
   <field type="string">element</field>
   <field>mass</field>
   <field>valence</field>
   <field type="string">pseudopotential</field>
   <set>
    <rc><c>   6</c><c>C </c><c>     12.01100000</c><c>      4.00000000</c><c>  PAW_PBE C 08Apr2002                   </c></rc>
    <rc><c>   6</c><c>H </c><c>      1.00000000</c><c>      1.00000000</c><c>  PAW_PBE H 15Jun2001                   </c></rc>
   </set>
  </array>
 </atominfo>
 <structure name="initialpos" >
  <crystal>
   <varray name="basis" >
    <v>      10.58354422       0.00000000       0.00000000 </v>
    <v>       0.00000000      10.58354422       0.00000000 </v>
    <v>       0.00000000       0.00000000      10.58354422 </v>
   </varray>
   <i name="volume">   1185.47769178 </i>
   <varray name="rec_basis" >
    <v>       0.09448631       0.00000000       0.00000000 </v>
    <v>       0.00000000       0.09448631       0.00000000 </v>
    <v>       0.00000000       0.00000000       0.09448631 </v>
   </varray>
  </crystal>
  <varray name="positions" >
   <v>       0.49677470       0.62858365       0.50103255 </v>
   <v>       0.38330280       0.56374405       0.49992185 </v>
   <v>       0.38318045       0.43036340       0.50052845 </v>
   <v>       0.49987715       0.36791950       0.49934115 </v>
   <v>       0.61714885       0.43705400       0.50149590 </v>
   <v>       0.61601530       0.56874815       0.49880370 </v>
   <v>       0.49987680       0.73345420       0.49504560 </v>
   <v>       0.29578580       0.61199915       0.51118245 </v>
   <v>       0.29068045       0.39743475       0.48790870 </v>
   <v>       0.50366165       0.26415570       0.50563045 </v>
   <v>       0.70912285       0.38336025       0.50060120 </v>
   <v>       0.70457325       0.61318325       0.49850795 </v>
  </varray>
 </structure>
 <calculation>
  <scstep>
   <time name="dav">    0.22    0.22</time>
   <time name="total">    0.49    0.49</time>
   <energy>
    <i name="alphaZ">      3.48814018 </i>
    <i name="ewald">   1120.70176806 </i>
    <i name="hartreedc">  -1756.44009206 </i>
    <i name="XCdc">     91.21241172 </i>
    <i name="pawpsdc">    663.93644290 </i>
    <i name="pawaedc">   -667.40614445 </i>
    <i name="eentropy">     -0.00000000 </i>
    <i name="bandstr">   -197.90780251 </i>
    <i name="atom">    957.82965714 </i>
    <i name="e_fr_energy">    215.41438097 </i>
    <i name="e_wo_entrp">    215.41438097 </i>
    <i name="e_0_energy">    215.41438097 </i>
   </energy>
  </scstep>
  <scstep>
   <time name="dav">    0.26    0.27</time>
   <time name="total">    0.26    0.27</time>
   <energy>
    <i name="e_fr_energy">     -3.15945110 </i>
    <i name="e_wo_entrp">     -3.15945110 </i>
    <i name="e_0_energy">     -3.15945110 </i>
   </energy>
  </scstep>
  <scstep>
   <time name="dav">    0.22    0.22</time>
   <time name="total">    0.22    0.22</time>
   <energy>
    <i name="e_fr_energy">    -78.03797935 </i>
    <i name="e_wo_entrp">    -78.03797935 </i>
    <i name="e_0_energy">    -78.03797935 </i>
   </energy>
  </scstep>
  <scstep>
   <time name="dav">    0.20    0.20</time>
   <time name="total">    0.20    0.20</time>
   <energy>
    <i name="e_fr_energy">    -83.62451376 </i>
    <i name="e_wo_entrp">    -83.62451376 </i>
    <i name="e_0_energy">    -83.62451376 </i>
   </energy>
  </scstep>
  <scstep>
   <time name="dav">    0.24    0.24</time>
   <time name="total">    0.28    0.28</time>
   <energy>
    <i name="e_fr_energy">    -83.74019819 </i>
    <i name="e_wo_entrp">    -83.74019819 </i>
    <i name="e_0_energy">    -83.74019819 </i>
   </energy>
  </scstep>
  <scstep>
   <time name="dav">    0.23    0.23</time>
   <time name="total">    0.53    0.54</time>
   <energy>
    <i name="e_fr_energy">    -77.60565782 </i>
    <i name="e_wo_entrp">    -77.60565782 </i>
    <i name="e_0_energy">    -77.60565782 </i>
   </energy>
  </scstep>
  <scstep>
   <time name="dav">    0.26    0.26</time>
   <time name="total">    0.57    0.57</time>
   <energy>
    <i name="e_fr_energy">    -75.80445964 </i>
    <i name="e_wo_entrp">    -75.80445964 </i>
    <i name="e_0_energy">    -75.80445964 </i>
   </energy>
  </scstep>
  <scstep>
   <time name="dav">    0.24    0.24</time>
   <time name="total">    0.54    0.55</time>
   <energy>
    <i name="e_fr_energy">    -75.64234101 </i>
    <i name="e_wo_entrp">    -75.64234101 </i>
    <i name="e_0_energy">    -75.64234101 </i>
   </energy>
  </scstep>
  <scstep>
   <time name="dav">    0.24    0.24</time>
   <time name="total">    0.54    0.55</time>
   <energy>
    <i name="e_fr_energy">    -75.60701753 </i>
    <i name="e_wo_entrp">    -75.60701753 </i>
    <i name="e_0_energy">    -75.60701753 </i>
   </energy>
  </scstep>
  <scstep>
   <time name="dav">    0.24    0.24</time>
   <time name="total">    0.54    0.55</time>
   <energy>
    <i name="e_fr_energy">    -75.60224534 </i>
    <i name="e_wo_entrp">    -75.60224534 </i>
    <i name="e_0_energy">    -75.60224534 </i>
   </energy>
  </scstep>
  <scstep>
   <time name="dav">    0.20    0.20</time>
   <time name="total">    0.50    0.51</time>
   <energy>
    <i name="e_fr_energy">    -75.59377462 </i>
    <i name="e_wo_entrp">    -75.59377462 </i>
    <i name="e_0_energy">    -75.59377462 </i>
   </energy>
  </scstep>
  <scstep>
   <time name="dav">    0.22    0.22</time>
   <time name="total">    0.51    0.51</time>
   <energy>
    <i name="e_fr_energy">    -75.59852269 </i>
    <i name="e_wo_entrp">    -75.59852269 </i>
    <i name="e_0_energy">    -75.59852269 </i>
   </energy>
  </scstep>
  <scstep>
   <time name="dav">    0.22    0.22</time>
   <time name="total">    0.50    0.51</time>
   <energy>
    <i name="e_fr_energy">    -75.60950447 </i>
    <i name="e_wo_entrp">    -75.60950447 </i>
    <i name="e_0_energy">    -75.60950447 </i>
   </energy>
  </scstep>
  <scstep>
   <time name="dav">    0.22    0.22</time>
   <time name="total">    0.50    0.51</time>
   <energy>
    <i name="e_fr_energy">    -75.61602728 </i>
    <i name="e_wo_entrp">    -75.61602728 </i>
    <i name="e_0_energy">    -75.61602728 </i>
   </energy>
  </scstep>
  <scstep>
   <time name="dav">    0.22    0.22</time>
   <time name="total">    0.50    0.50</time>
   <energy>
    <i name="e_fr_energy">    -75.61872027 </i>
    <i name="e_wo_entrp">    -75.61872027 </i>
    <i name="e_0_energy">    -75.61872027 </i>
   </energy>
  </scstep>
  <scstep>
   <time name="dav">    0.22    0.22</time>
   <time name="total">    0.50    0.50</time>
   <energy>
    <i name="e_fr_energy">    -75.61987714 </i>
    <i name="e_wo_entrp">    -75.61987714 </i>
    <i name="e_0_energy">    -75.61987714 </i>
   </energy>
  </scstep>
  <scstep>
   <time name="dav">    0.24    0.24</time>
   <time name="total">    0.53    0.54</time>
   <energy>
    <i name="e_fr_energy">    -75.62020016 </i>
    <i name="e_wo_entrp">    -75.62020016 </i>
    <i name="e_0_energy">    -75.62020016 </i>
   </energy>
  </scstep>
  <scstep>
   <time name="dav">    0.24    0.25</time>
   <time name="total">    0.54    0.54</time>
   <energy>
    <i name="e_fr_energy">    -75.62030479 </i>
    <i name="e_wo_entrp">    -75.62030479 </i>
    <i name="e_0_energy">    -75.62030479 </i>
   </energy>
  </scstep>
  <scstep>
   <time name="dav">    0.20    0.20</time>
   <time name="total">    0.49    0.49</time>
   <energy>
    <i name="e_fr_energy">    -75.62033501 </i>
    <i name="e_wo_entrp">    -75.62033501 </i>
    <i name="e_0_energy">    -75.62033501 </i>
   </energy>
  </scstep>
  <scstep>
   <time name="dav">    0.19    0.20</time>
   <time name="total">    0.49    0.49</time>
   <energy>
    <i name="e_fr_energy">    -75.62034514 </i>
    <i name="e_wo_entrp">    -75.62034514 </i>
    <i name="e_0_energy">    -75.62034514 </i>
   </energy>
  </scstep>
  <scstep>
   <time name="dav">    0.19    0.20</time>
   <time name="total">    0.49    0.50</time>
   <energy>
    <i name="e_fr_energy">    -75.62034897 </i>
    <i name="e_wo_entrp">    -75.62034897 </i>
    <i name="e_0_energy">    -75.62034897 </i>
   </energy>
  </scstep>
  <scstep>
   <time name="dav">    0.17    0.17</time>
   <time name="total">    0.43    0.44</time>
   <energy>
    <i name="alphaZ">      3.48814018 </i>
    <i name="ewald">   1120.70176806 </i>
    <i name="hartreedc">  -1902.26189457 </i>
    <i name="XCdc">     98.09468995 </i>
    <i name="pawpsdc">   2472.78935846 </i>
    <i name="pawaedc">  -2477.03866092 </i>
    <i name="eentropy">     -0.00000000 </i>
    <i name="bandstr">   -349.22340789 </i>
    <i name="atom">    957.82965714 </i>
    <i name="e_fr_energy">    -75.62034957 </i>
    <i name="e_wo_entrp">    -75.62034957 </i>
    <i name="e_0_energy">    -75.62034957 </i>
   </energy>
  </scstep>
  <structure>
   <crystal>
    <varray name="basis" >
     <v>      10.58354422       0.00000000       0.00000000 </v>
     <v>       0.00000000      10.58354422       0.00000000 </v>
     <v>       0.00000000       0.00000000      10.58354422 </v>
    </varray>
    <i name="volume">   1185.47769178 </i>
    <varray name="rec_basis" >
     <v>       0.09448631       0.00000000       0.00000000 </v>
     <v>       0.00000000       0.09448631       0.00000000 </v>
     <v>       0.00000000       0.00000000       0.09448631 </v>
    </varray>
   </crystal>
   <varray name="positions" >
    <v>       0.49677470       0.62858365       0.50103255 </v>
    <v>       0.38330280       0.56374405       0.49992185 </v>
    <v>       0.38318045       0.43036340       0.50052845 </v>
    <v>       0.49987715       0.36791950       0.49934115 </v>
    <v>       0.61714885       0.43705400       0.50149590 </v>
    <v>       0.61601530       0.56874815       0.49880370 </v>
    <v>       0.49987680       0.73345420       0.49504560 </v>
    <v>       0.29578580       0.61199915       0.51118245 </v>
    <v>       0.29068045       0.39743475       0.48790870 </v>
    <v>       0.50366165       0.26415570       0.50563045 </v>
    <v>       0.70912285       0.38336025       0.50060120 </v>
    <v>       0.70457325       0.61318325       0.49850795 </v>
   </varray>
  </structure>
  <varray name="forces" >
   <v>       1.17387281       1.62689540      -0.38958181 </v>
   <v>       1.12506401      -0.83341570       0.49694888 </v>
   <v>       1.71510874       1.82250608      -0.40319728 </v>
   <v>       0.62898734      -0.11035132       0.38022699 </v>
   <v>      -0.55137347      -1.25313778      -0.18119232 </v>
   <v>      -1.92914242      -1.65553161       0.15978160 </v>
   <v>      -0.32053790      -0.52504227       0.22994628 </v>
   <v>      -0.78811962       0.58464498      -0.24109916 </v>
   <v>      -1.17649768      -1.65194544       0.15500649 </v>
   <v>      -0.01924427       0.27243170      -0.22583647 </v>
   <v>      -0.96644841       0.50904441       0.06984862 </v>
   <v>       1.10833088       1.21390153      -0.05085182 </v>
  </varray>
  <varray name="stress" >
   <v>      -3.01960759       1.75132675       0.11081558 </v>
   <v>       1.75132675       1.64225529       0.45816246 </v>
   <v>       0.11081558       0.45816247      -0.29323920 </v>
  </varray>
  <energy>
   <i name="e_fr_energy">    -75.62034957 </i>
   <i name="e_wo_entrp">    -75.62034957 </i>
   <i name="e_0_energy">    -75.62034957 </i>
  </energy>
  <time name="totalsc">   15.29   15.49</time>
  <eigenvalues>
   <array>
    <dimension dim="1">band</dimension>
    <dimension dim="2">kpoint</dimension>
    <dimension dim="3">spin</dimension>
    <field>eigene</field>
    <field>occ</field>
    <set>
     <set comment="spin 1">
      <set comment="kpoint 1">
       <r>  -20.6857    1.0000 </r>
       <r>  -18.1460    1.0000 </r>
       <r>  -17.8076    1.0000 </r>
       <r>  -14.5626    1.0000 </r>
       <r>  -14.2801    1.0000 </r>
       <r>  -12.3975    1.0000 </r>
       <r>  -11.0267    1.0000 </r>
       <r>  -10.3922    1.0000 </r>
       <r>   -9.8171    1.0000 </r>
       <r>   -9.5624    1.0000 </r>
       <r>   -8.6098    1.0000 </r>
       <r>   -8.0205    1.0000 </r>
       <r>   -7.5083    1.0000 </r>
       <r>   -5.9716    1.0000 </r>
       <r>   -5.8238    1.0000 </r>
       <r>   -0.9286    0.0000 </r>
       <r>   -0.8936    0.0000 </r>
       <r>   -0.4337    0.0000 </r>
       <r>    0.6781    0.0000 </r>
       <r>    0.8380    0.0000 </r>
       <r>    0.8817    0.0000 </r>
       <r>    0.9134    0.0000 </r>
       <r>    0.9857    0.0000 </r>
       <r>    1.4454    0.0000 </r>
      </set>
     </set>
    </set>
   </array>
  </eigenvalues>
  <separator name="orbital magnetization" >
   <v name="MAGDIPOLOUT">      0.00000000      0.00000000      0.00000000</v>
  </separator>
  <dos>
   <i name="efermi">     -5.55768454 </i>
   <total>
    <array>
     <dimension dim="1">gridpoints</dimension>
     <dimension dim="2">spin</dimension>
     <field>energy</field>
     <field>total</field>
     <field>integrated</field>
     <set>
      <set comment="spin 1">
       <r>   -21.7922     0.0000     0.0000 </r>
       <r>   -21.7111     0.0000     0.0000 </r>
       <r>   -21.6299     0.0000     0.0000 </r>
       <r>   -21.5488     0.0000     0.0000 </r>
       <r>   -21.4676     0.0000     0.0000 </r>
       <r>   -21.3865     0.0000     0.0000 </r>
       <r>   -21.3054     0.0000     0.0000 </r>
       <r>   -21.2242     0.0000     0.0000 </r>
       <r>   -21.1431     0.0000     0.0000 </r>
       <r>   -21.0619     0.0000     0.0000 </r>
       <r>   -20.9808     0.0000     0.0000 </r>
       <r>   -20.8996     0.0000     0.0000 </r>
       <r>   -20.8185     0.0021     0.0002 </r>
       <r>   -20.7373     1.7740     0.1441 </r>
       <r>   -20.6562    17.8926     1.5961 </r>
       <r>   -20.5750     4.9562     1.9983 </r>
       <r>   -20.4939     0.0216     2.0000 </r>
       <r>   -20.4127     0.0000     2.0000 </r>
       <r>   -20.3316     0.0000     2.0000 </r>
       <r>   -20.2504     0.0000     2.0000 </r>
       <r>   -20.1693     0.0000     2.0000 </r>
       <r>   -20.0881     0.0000     2.0000 </r>
       <r>   -20.0070     0.0000     2.0000 </r>
       <r>   -19.9258     0.0000     2.0000 </r>
       <r>   -19.8447     0.0000     2.0000 </r>
       <r>   -19.7636     0.0000     2.0000 </r>
       <r>   -19.6824     0.0000     2.0000 </r>
       <r>   -19.6013     0.0000     2.0000 </r>
       <r>   -19.5201     0.0000     2.0000 </r>
       <r>   -19.4390     0.0000     2.0000 </r>
       <r>   -19.3578     0.0000     2.0000 </r>
       <r>   -19.2767     0.0000     2.0000 </r>
       <r>   -19.1955     0.0000     2.0000 </r>
       <r>   -19.1144     0.0000     2.0000 </r>
       <r>   -19.0332     0.0000     2.0000 </r>
       <r>   -18.9521     0.0000     2.0000 </r>
       <r>   -18.8709     0.0000     2.0000 </r>
       <r>   -18.7898     0.0000     2.0000 </r>
       <r>   -18.7086     0.0000     2.0000 </r>
       <r>   -18.6275     0.0000     2.0000 </r>
       <r>   -18.5463     0.0000     2.0000 </r>
       <r>   -18.4652     0.0000     2.0000 </r>
       <r>   -18.3840     0.0000     2.0000 </r>
       <r>   -18.3029     0.0001     2.0000 </r>
       <r>   -18.2218     0.3956     2.0321 </r>
       <r>   -18.1406    13.4182     3.1210 </r>
       <r>   -18.0595    10.6553     3.9856 </r>
       <r>   -17.9783     0.1773     4.0000 </r>
       <r>   -17.8972     0.1389     4.0113 </r>
       <r>   -17.8160     9.8561     4.8111 </r>
       <r>   -17.7349    14.1615     5.9602 </r>
       <r>   -17.6537     0.4899     6.0000 </r>
       <r>   -17.5726     0.0002     6.0000 </r>
       <r>   -17.4914     0.0000     6.0000 </r>
       <r>   -17.4103     0.0000     6.0000 </r>
       <r>   -17.3291     0.0000     6.0000 </r>
       <r>   -17.2480     0.0000     6.0000 </r>
       <r>   -17.1668     0.0000     6.0000 </r>
       <r>   -17.0857     0.0000     6.0000 </r>
       <r>   -17.0045     0.0000     6.0000 </r>
       <r>   -16.9234     0.0000     6.0000 </r>
       <r>   -16.8422     0.0000     6.0000 </r>
       <r>   -16.7611     0.0000     6.0000 </r>
       <r>   -16.6800     0.0000     6.0000 </r>
       <r>   -16.5988     0.0000     6.0000 </r>
       <r>   -16.5177     0.0000     6.0000 </r>
       <r>   -16.4365     0.0000     6.0000 </r>
       <r>   -16.3554     0.0000     6.0000 </r>
       <r>   -16.2742     0.0000     6.0000 </r>
       <r>   -16.1931     0.0000     6.0000 </r>
       <r>   -16.1119     0.0000     6.0000 </r>
       <r>   -16.0308     0.0000     6.0000 </r>
       <r>   -15.9496     0.0000     6.0000 </r>
       <r>   -15.8685     0.0000     6.0000 </r>
       <r>   -15.7873     0.0000     6.0000 </r>
       <r>   -15.7062     0.0000     6.0000 </r>
       <r>   -15.6250     0.0000     6.0000 </r>
       <r>   -15.5439     0.0000     6.0000 </r>
       <r>   -15.4627     0.0000     6.0000 </r>
       <r>   -15.3816     0.0000     6.0000 </r>
       <r>   -15.3004     0.0000     6.0000 </r>
       <r>   -15.2193     0.0000     6.0000 </r>
       <r>   -15.1382     0.0000     6.0000 </r>
       <r>   -15.0570     0.0000     6.0000 </r>
       <r>   -14.9759     0.0000     6.0000 </r>
       <r>   -14.8947     0.0000     6.0000 </r>
       <r>   -14.8136     0.0000     6.0000 </r>
       <r>   -14.7324     0.0000     6.0000 </r>
       <r>   -14.6513     0.1492     6.0121 </r>
       <r>   -14.5701    10.0872     6.8307 </r>
       <r>   -14.4890    13.9492     7.9626 </r>
       <r>   -14.4078     0.4645     8.0003 </r>
       <r>   -14.3267     2.3044     8.1873 </r>
       <r>   -14.2455    18.2867     9.6712 </r>
       <r>   -14.1644     4.0386     9.9989 </r>
       <r>   -14.0832     0.0132    10.0000 </r>
       <r>   -14.0021     0.0000    10.0000 </r>
       <r>   -13.9209     0.0000    10.0000 </r>
       <r>   -13.8398     0.0000    10.0000 </r>
       <r>   -13.7586     0.0000    10.0000 </r>
       <r>   -13.6775     0.0000    10.0000 </r>
       <r>   -13.5964     0.0000    10.0000 </r>
       <r>   -13.5152     0.0000    10.0000 </r>
       <r>   -13.4341     0.0000    10.0000 </r>
       <r>   -13.3529     0.0000    10.0000 </r>
       <r>   -13.2718     0.0000    10.0000 </r>
       <r>   -13.1906     0.0000    10.0000 </r>
       <r>   -13.1095     0.0000    10.0000 </r>
       <r>   -13.0283     0.0000    10.0000 </r>
       <r>   -12.9472     0.0000    10.0000 </r>
       <r>   -12.8660     0.0000    10.0000 </r>
       <r>   -12.7849     0.0000    10.0000 </r>
       <r>   -12.7037     0.0000    10.0000 </r>
       <r>   -12.6226     0.0000    10.0000 </r>
       <r>   -12.5414     0.0006    10.0000 </r>
       <r>   -12.4603     0.9333    10.0758 </r>
       <r>   -12.3791    16.2767    11.3966 </r>
       <r>   -12.2980     7.3757    11.9951 </r>
       <r>   -12.2168     0.0602    12.0000 </r>
       <r>   -12.1357     0.0000    12.0000 </r>
       <r>   -12.0545     0.0000    12.0000 </r>
       <r>   -11.9734     0.0000    12.0000 </r>
       <r>   -11.8923     0.0000    12.0000 </r>
       <r>   -11.8111     0.0000    12.0000 </r>
       <r>   -11.7300     0.0000    12.0000 </r>
       <r>   -11.6488     0.0000    12.0000 </r>
       <r>   -11.5677     0.0000    12.0000 </r>
       <r>   -11.4865     0.0000    12.0000 </r>
       <r>   -11.4054     0.0000    12.0000 </r>
       <r>   -11.3242     0.0000    12.0000 </r>
       <r>   -11.2431     0.0000    12.0000 </r>
       <r>   -11.1619     0.0016    12.0001 </r>
       <r>   -11.0808     1.5498    12.1259 </r>
       <r>   -10.9996    17.6180    13.5555 </r>
       <r>   -10.9185     5.4499    13.9978 </r>
       <r>   -10.8373     0.0273    14.0000 </r>
       <r>   -10.7562     0.0000    14.0000 </r>
       <r>   -10.6750     0.0000    14.0000 </r>
       <r>   -10.5939     0.0000    14.0000 </r>
       <r>   -10.5127     0.0080    14.0007 </r>
       <r>   -10.4316     3.2598    14.2652 </r>
       <r>   -10.3505    18.4504    15.7624 </r>
       <r>   -10.2693     2.9220    15.9995 </r>
       <r>   -10.1882     0.0063    16.0000 </r>
       <r>   -10.1070     0.0000    16.0000 </r>
       <r>   -10.0259     0.0000    16.0000 </r>
       <r>    -9.9447     0.0038    16.0003 </r>
       <r>    -9.8636     2.3199    16.1886 </r>
       <r>    -9.7824    18.2942    17.6731 </r>
       <r>    -9.7013     4.0167    17.9990 </r>
       <r>    -9.6201     1.2727    18.1023 </r>
       <r>    -9.5390    17.1213    19.4917 </r>
       <r>    -9.4578     6.2261    19.9969 </r>
       <r>    -9.3767     0.0383    20.0000 </r>
       <r>    -9.2955     0.0000    20.0000 </r>
       <r>    -9.2144     0.0000    20.0000 </r>
       <r>    -9.1332     0.0000    20.0000 </r>
       <r>    -9.0521     0.0000    20.0000 </r>
       <r>    -8.9709     0.0000    20.0000 </r>
       <r>    -8.8898     0.0000    20.0000 </r>
       <r>    -8.8087     0.0000    20.0000 </r>
       <r>    -8.7275     0.0107    20.0009 </r>
       <r>    -8.6464     3.7006    20.3012 </r>
       <r>    -8.5652    18.3816    21.7928 </r>
       <r>    -8.4841     2.5489    21.9996 </r>
       <r>    -8.4029     0.0046    22.0000 </r>
       <r>    -8.3218     0.0000    22.0000 </r>
       <r>    -8.2406     0.0000    22.0000 </r>
       <r>    -8.1595     0.0010    22.0001 </r>
       <r>    -8.0783     1.2534    22.1018 </r>
       <r>    -7.9972    17.1084    23.4901 </r>
       <r>    -7.9160     6.2450    23.9969 </r>
       <r>    -7.8349     0.0386    24.0000 </r>
       <r>    -7.7537     0.0000    24.0000 </r>
       <r>    -7.6726     0.0000    24.0000 </r>
       <r>    -7.5914     0.2307    24.0187 </r>
       <r>    -7.5103    11.5449    24.9556 </r>
       <r>    -7.4291    12.5612    25.9749 </r>
       <r>    -7.3480     0.3095    26.0000 </r>
       <r>    -7.2669     0.0001    26.0000 </r>
       <r>    -7.1857     0.0000    26.0000 </r>
       <r>    -7.1046     0.0000    26.0000 </r>
       <r>    -7.0234     0.0000    26.0000 </r>
       <r>    -6.9423     0.0000    26.0000 </r>
       <r>    -6.8611     0.0000    26.0000 </r>
       <r>    -6.7800     0.0000    26.0000 </r>
       <r>    -6.6988     0.0000    26.0000 </r>
       <r>    -6.6177     0.0000    26.0000 </r>
       <r>    -6.5365     0.0000    26.0000 </r>
       <r>    -6.4554     0.0000    26.0000 </r>
       <r>    -6.3742     0.0000    26.0000 </r>
       <r>    -6.2931     0.0000    26.0000 </r>
       <r>    -6.2119     0.0000    26.0000 </r>
       <r>    -6.1308     0.0001    26.0000 </r>
       <r>    -6.0496     0.3360    26.0273 </r>
       <r>    -5.9685    12.8481    27.0699 </r>
       <r>    -5.8873    12.1430    28.0552 </r>
       <r>    -5.8062    16.3502    29.3820 </r>
       <r>    -5.7251     7.5514    29.9948 </r>
       <r>    -5.6439     0.0642    30.0000 </r>
       <r>    -5.5628     0.0000    30.0000 </r>
       <r>    -5.4816     0.0000    30.0000 </r>
       <r>    -5.4005     0.0000    30.0000 </r>
       <r>    -5.3193     0.0000    30.0000 </r>
       <r>    -5.2382     0.0000    30.0000 </r>
       <r>    -5.1570     0.0000    30.0000 </r>
       <r>    -5.0759     0.0000    30.0000 </r>
       <r>    -4.9947     0.0000    30.0000 </r>
       <r>    -4.9136     0.0000    30.0000 </r>
       <r>    -4.8324     0.0000    30.0000 </r>
       <r>    -4.7513     0.0000    30.0000 </r>
       <r>    -4.6701     0.0000    30.0000 </r>
       <r>    -4.5890     0.0000    30.0000 </r>
       <r>    -4.5078     0.0000    30.0000 </r>
       <r>    -4.4267     0.0000    30.0000 </r>
       <r>    -4.3455     0.0000    30.0000 </r>
       <r>    -4.2644     0.0000    30.0000 </r>
       <r>    -4.1833     0.0000    30.0000 </r>
       <r>    -4.1021     0.0000    30.0000 </r>
       <r>    -4.0210     0.0000    30.0000 </r>
       <r>    -3.9398     0.0000    30.0000 </r>
       <r>    -3.8587     0.0000    30.0000 </r>
       <r>    -3.7775     0.0000    30.0000 </r>
       <r>    -3.6964     0.0000    30.0000 </r>
       <r>    -3.6152     0.0000    30.0000 </r>
       <r>    -3.5341     0.0000    30.0000 </r>
       <r>    -3.4529     0.0000    30.0000 </r>
       <r>    -3.3718     0.0000    30.0000 </r>
       <r>    -3.2906     0.0000    30.0000 </r>
       <r>    -3.2095     0.0000    30.0000 </r>
       <r>    -3.1283     0.0000    30.0000 </r>
       <r>    -3.0472     0.0000    30.0000 </r>
       <r>    -2.9660     0.0000    30.0000 </r>
       <r>    -2.8849     0.0000    30.0000 </r>
       <r>    -2.8037     0.0000    30.0000 </r>
       <r>    -2.7226     0.0000    30.0000 </r>
       <r>    -2.6414     0.0000    30.0000 </r>
       <r>    -2.5603     0.0000    30.0000 </r>
       <r>    -2.4792     0.0000    30.0000 </r>
       <r>    -2.3980     0.0000    30.0000 </r>
       <r>    -2.3169     0.0000    30.0000 </r>
       <r>    -2.2357     0.0000    30.0000 </r>
       <r>    -2.1546     0.0000    30.0000 </r>
       <r>    -2.0734     0.0000    30.0000 </r>
       <r>    -1.9923     0.0000    30.0000 </r>
       <r>    -1.9111     0.0000    30.0000 </r>
       <r>    -1.8300     0.0000    30.0000 </r>
       <r>    -1.7488     0.0000    30.0000 </r>
       <r>    -1.6677     0.0000    30.0000 </r>
       <r>    -1.5865     0.0000    30.0000 </r>
       <r>    -1.5054     0.0000    30.0000 </r>
       <r>    -1.4242     0.0000    30.0000 </r>
       <r>    -1.3431     0.0000    30.0000 </r>
       <r>    -1.2619     0.0000    30.0000 </r>
       <r>    -1.1808     0.0000    30.0000 </r>
       <r>    -1.0996     0.0000    30.0000 </r>
       <r>    -1.0185     0.1400    30.0114 </r>
       <r>    -0.9374    12.4167    31.0189 </r>
       <r>    -0.8562    32.6530    33.6687 </r>
       <r>    -0.7751     4.0732    33.9992 </r>
       <r>    -0.6939     0.0101    34.0000 </r>
       <r>    -0.6128     0.0000    34.0000 </r>
       <r>    -0.5316     0.0691    34.0056 </r>
       <r>    -0.4505     7.7577    34.6351 </r>
       <r>    -0.3693    15.9736    35.9313 </r>
       <r>    -0.2882     0.8456    36.0000 </r>
       <r>    -0.2070     0.0005    36.0000 </r>
       <r>    -0.1259     0.0000    36.0000 </r>
       <r>    -0.0447     0.0000    36.0000 </r>
       <r>     0.0364     0.0000    36.0000 </r>
       <r>     0.1176     0.0000    36.0000 </r>
       <r>     0.1987     0.0000    36.0000 </r>
       <r>     0.2799     0.0000    36.0000 </r>
       <r>     0.3610     0.0000    36.0000 </r>
       <r>     0.4422     0.0000    36.0000 </r>
       <r>     0.5233     0.0001    36.0000 </r>
       <r>     0.6044     0.4597    36.0373 </r>
       <r>     0.6856    13.9414    37.1686 </r>
       <r>     0.7667    10.6505    38.0329 </r>
       <r>     0.8479    19.5949    39.6230 </r>
       <r>     0.9290    44.8215    43.2601 </r>
       <r>     1.0102    27.6606    45.5047 </r>
       <r>     1.0913     6.0690    45.9972 </r>
       <r>     1.1725     0.0347    46.0000 </r>
       <r>     1.2536     0.0000    46.0000 </r>
       <r>     1.3348     0.0216    46.0017 </r>
       <r>     1.4159     4.9562    46.4039 </r>
       <r>     1.4971    17.8926    47.8559 </r>
       <r>     1.5782     1.7740    47.9998 </r>
       <r>     1.6594     0.0021    48.0000 </r>
       <r>     1.7405     0.0000    48.0000 </r>
       <r>     1.8217     0.0000    48.0000 </r>
       <r>     1.9028     0.0000    48.0000 </r>
       <r>     1.9840     0.0000    48.0000 </r>
       <r>     2.0651     0.0000    48.0000 </r>
       <r>     2.1462     0.0000    48.0000 </r>
       <r>     2.2274     0.0000    48.0000 </r>
       <r>     2.3085     0.0000    48.0000 </r>
       <r>     2.3897     0.0000    48.0000 </r>
       <r>     2.4708     0.0000    48.0000 </r>
       <r>     2.5520     0.0000    48.0000 </r>
      </set>
     </set>
    </array>
   </total>
  </dos>
 </calculation>
 <structure name="finalpos" >
  <crystal>
   <varray name="basis" >
    <v>      10.58354422       0.00000000       0.00000000 </v>
    <v>       0.00000000      10.58354422       0.00000000 </v>
    <v>       0.00000000       0.00000000      10.58354422 </v>
   </varray>
   <i name="volume">   1185.47769178 </i>
   <varray name="rec_basis" >
    <v>       0.09448631       0.00000000       0.00000000 </v>
    <v>       0.00000000       0.09448631       0.00000000 </v>
    <v>       0.00000000       0.00000000       0.09448631 </v>
   </varray>
  </crystal>
  <varray name="positions" >
   <v>       0.49677470       0.62858365       0.50103255 </v>
   <v>       0.38330280       0.56374405       0.49992185 </v>
   <v>       0.38318045       0.43036340       0.50052845 </v>
   <v>       0.49987715       0.36791950       0.49934115 </v>
   <v>       0.61714885       0.43705400       0.50149590 </v>
   <v>       0.61601530       0.56874815       0.49880370 </v>
   <v>       0.49987680       0.73345420       0.49504560 </v>
   <v>       0.29578580       0.61199915       0.51118245 </v>
   <v>       0.29068045       0.39743475       0.48790870 </v>
   <v>       0.50366165       0.26415570       0.50563045 </v>
   <v>       0.70912285       0.38336025       0.50060120 </v>
   <v>       0.70457325       0.61318325       0.49850795 </v>
  </varray>
 </structure>
</modeling>
